_cell_length_a 5.554
_cell_length_b 14.44
_cell_length_c 5.334
_cell_angle_alpha 90.
_cell_angle_beta 90.
_cell_angle_gamma 90.
_cell_volume 438.12
_cell_formula_units_Z 4
_symmetry_space_group_name_H-M 'I b m 2'
_symmetry_Int_Tables_number 46
_refine_ls_R_factor_all 0.027
loop_
_symmetry_equiv_pos_site_id
_symmetry_equiv_pos_as_xyz
1 '-x, y+1/2, z'
2 'x, -y+1/2, z'
3 '-x, -y, z'
4 'x, y, z'
5 '-x+1/2, y, z+1/2'
6 'x+1/2, -y, z+1/2'
7 '-x+1/2, -y+1/2, z+1/2'
8 'x+1/2, y+1/2, z+1/2'
loop_
_atom_type_symbol
_atom_type_oxidation_number
Ca2+ 2
Cu3+ 3
Al3+ 3
O2- -2
loop_
_atom_site_label
_atom_site_type_symbol
_atom_site_symmetry_multiplicity
_atom_site_Wyckoff_symbol
_atom_site_fract_x
_atom_site_fract_y
_atom_site_fract_z
_atom_site_B_iso_or_equiv
_atom_site_occupancy
_atom_site_attached_hydrogens
Ca1 Ca2+ 8 c 0.0273 0.1087 0.4920 . 1. 0
Cu1 Cu3+ 4 a 0 0 0 . 0.76 0
Cu2 Cu3+ 4 b 0.9283 0.25 0.9533 . 0.24 0
Al1 Al3+ 4 a 0 0 0 . 0.24 0
Al2 Al3+ 4 b 0.9283 0.25 0.9533 . 0.76 0
O1 O2- 8 c 0.2523 0.9861 0.2491 . 1. 0
O2 O2- 8 c 0.0680(7) 0.1493(3) 0.0246(9) . 1. 0
O3 O2- 4 b 0.8607(10) 0.25 0.6193(11) . 1. 0
loop_
_atom_site_aniso_label
_atom_site_aniso_type_symbol
_atom_site_aniso_beta_11
_atom_site_aniso_beta_22
_atom_site_aniso_beta_33
_atom_site_aniso_beta_12
_atom_site_aniso_beta_13
_atom_site_aniso_beta_23
Ca1 Ca2+ 0.0045(2) 0.0008(1) 0.0079(3) 0.0001(1) -.0002(3) 0.0000(1)
Cu1 Cu3+ 0.0015(3) 0.0011(1) 0.0029(4) 0.0000(1) 0 0
Cu2 Cu3+ 0.0018(4) 0.0004(1) 0.0025(6) 0 -.0007(4) 0
Al1 Al3+ 0.0015(3) 0.0011(1) 0.0029(4) 0.0000(1) 0 0
Al2 Al3+ 0.0018(4) 0.0004(1) 0.0025(6) 0 -.0007(4) 0
O1 O2- 0.0027(9) 0.0011(1) 0.0069(11) -.0005(6) -.0002(8) -.0006(4)
O2 O2- 0.0055(9) 0.0011(9) 0.0082(15) 0.0006(3) -.0016(11) 0.0008(4)
O3 O2- 0.0036(14) 0.0008(2) 0.0074(19) 0 -.0007(13) 0