
_cell_length_a 5.46307
_cell_length_b 7.72938(5)
_cell_length_c 5.58037(4)
_cell_angle_alpha 90.
_cell_angle_beta 90.
_cell_angle_gamma 90.
_cell_volume 231.07
_cell_formula_units_Z 4
_symmetry_space_group_name_H-M 'P n m a'
_symmetry_Int_Tables_number 62
_refine_ls_R_factor_all 0.063
loop_
_symmetry_equiv_pos_site_id
_symmetry_equiv_pos_as_xyz
1 'x+1/2, y, -z+1/2'
2 'x, -y+1/2, z'
3 '-x+1/2, y+1/2, z+1/2'
4 '-x, -y, -z'
5 '-x+1/2, -y, z+1/2'
6 '-x, y+1/2, -z'
7 'x+1/2, -y+1/2, -z+1/2'
8 'x, y, z'
loop_
_atom_type_symbol
_atom_type_oxidation_number
Mn3+ 3.3
La3+ 3
Sr2+ 2
O2- -2
loop_
_atom_site_label
_atom_site_type_symbol
_atom_site_symmetry_multiplicity
_atom_site_Wyckoff_symbol
_atom_site_fract_x
_atom_site_fract_y
_atom_site_fract_z
_atom_site_B_iso_or_equiv
_atom_site_occupancy
_atom_site_attached_hydrogens
Mn1 Mn3+ 4 b 0 0 0.5 0.08(4) 1. 0
La1 La3+ 4 c 0.0187 0.25 0.9932(8) 0.28(3) 0.7 0
Sr1 Sr2+ 4 c 0.0187 0.25 0.9932(8) 0.28(3) 0.3 0
O1 O2- 4 c 0.4920(8) 0.25 0.0649(7) 0.59(5) 1. 0
O2 O2- 8 d 0.2732(5) 0.0334 0.7249(5) 0.44(3) 1. 0
