
#(C) 2017 by FIZ Karlsruhe - Leibniz Institute for Information Infrastructure.  All rights reserved.
data_172790-ICSD
_database_code_ICSD 172790
_audit_creation_date 2007-08-01
_chemical_name_systematic 'Calcium molybdate(IV)'
_chemical_formula_structural 'Ca Mo O3'
_chemical_formula_sum 'Ca1 Mo1 O3'
_chemical_name_structure_type Perovskite-GdFeO3
_chemical_name_mineral Perovskite
_exptl_crystal_density_diffrn 5.16
_publ_section_title

;
Neutron diffraction study and magnetotransport properties of stoichiometric Ca
Mo O3 perovskite prepared by a soft-chemistry route
;
loop_
_citation_id
_citation_journal_full
_citation_year
_citation_journal_volume
_citation_page_first
_citation_page_last
_citation_journal_id_ASTM
primary 'Journal of Solid State Chemistry' 2006 179 1636 1641 JSSCBI
loop_
_publ_author_name
'de la Calle, C.'
'Alonso, J.A.'
'Garcia Hernandez, M.'
'Pomjakushin, V.'
_cell_length_a 5.4510(1)
_cell_length_b 5.5821(1)
_cell_length_c 7.7803(2)
_cell_angle_alpha 90.
_cell_angle_beta 90.
_cell_angle_gamma 90.
_cell_volume 236.74
_cell_formula_units_Z 4
_symmetry_space_group_name_H-M 'P b n m'
_symmetry_Int_Tables_number 62
_refine_ls_R_factor_all 0.0309
loop_
_symmetry_equiv_pos_site_id
_symmetry_equiv_pos_as_xyz
1 '-x+1/2, y+1/2, z'
2 'x, y, -z+1/2'
3 'x+1/2, -y+1/2, z+1/2'
4 '-x, -y, -z'
5 'x+1/2, -y+1/2, -z'
6 '-x, -y, z+1/2'
7 '-x+1/2, y+1/2, -z+1/2'
8 'x, y, z'
loop_
_atom_type_symbol
_atom_type_oxidation_number
Ca2+ 2
Mo4+ 4
O2- -2
loop_
_atom_site_label
_atom_site_type_symbol
_atom_site_symmetry_multiplicity
_atom_site_Wyckoff_symbol
_atom_site_fract_x
_atom_site_fract_y
_atom_site_fract_z
_atom_site_B_iso_or_equiv
_atom_site_occupancy
_atom_site_attached_hydrogens
Ca1 Ca2+ 4 c 0.9895(5) 0.0454(3) 0.25 .63(3) 1. 0
Mo1 Mo4+ 4 b 0.5 0 0 .17(2) 1. 0
O1 O2- 4 c 0.0810(3) 0.4780(3) 0.25 .56(4) 1. 0
O2 O2- 8 d 0.7045(2) 0.2931(2) 0.0423(2) .57(2) 1. 0
#End of TTdata_172790-ICSD