
#(C) 2017 by FIZ Karlsruhe - Leibniz Institute for Information Infrastructure.  All rights reserved.
data_202836-ICSD
_database_code_ICSD 202836
_audit_creation_date 1989-06-19
_chemical_name_systematic 'Chromium(IV) dioxide'
_chemical_formula_structural 'Cr O2'
_chemical_formula_sum 'Cr1 O2'
_chemical_name_structure_type Rutile-TiO2
_exptl_crystal_density_diffrn 4.89
_cell_measurement_temperature 295.
_publ_section_title

;
Low-Temperature Neutron Powder Diffraction Study of Cr O2 and the Validity of
the Jahn-Teller Viewpoint
;
loop_
_citation_id
_citation_journal_full
_citation_year
_citation_journal_volume
_citation_page_first
_citation_page_last
_citation_journal_id_ASTM
primary 'Journal of the American Chemical Society' 1988 110 8064 8071 JACSAT
loop_
_publ_author_name
'Burdett, J.K.'
'Miller, G.J.'
'Richardson, J.W.jr.'
'Smith, J.V.'
_cell_length_a 4.42193(4)
_cell_length_b 4.42193(4)
_cell_length_c 2.91659(4)
_cell_angle_alpha 90.
_cell_angle_beta 90.
_cell_angle_gamma 90.
_cell_volume 57.03
_cell_formula_units_Z 2
_symmetry_space_group_name_H-M 'P 42/m n m'
_symmetry_Int_Tables_number 136
_refine_ls_R_factor_all 0.0693
loop_
_symmetry_equiv_pos_site_id
_symmetry_equiv_pos_as_xyz
1 '-y+1/2, x+1/2, -z+1/2'
2 'y+1/2, -x+1/2, -z+1/2'
3 'y, x, -z'
4 '-y, -x, -z'
5 'y+1/2, -x+1/2, z+1/2'
6 '-y+1/2, x+1/2, z+1/2'
7 '-y, -x, z'
8 'y, x, z'
9 'x+1/2, -y+1/2, -z+1/2'
10 '-x+1/2, y+1/2, -z+1/2'
11 'x, y, -z'
12 '-x, -y, -z'
13 '-x+1/2, y+1/2, z+1/2'
14 'x+1/2, -y+1/2, z+1/2'
15 '-x, -y, z'
16 'x, y, z'
loop_
_atom_type_symbol
_atom_type_oxidation_number
Cr4+ 4
O2- -2
loop_
_atom_site_label
_atom_site_type_symbol
_atom_site_symmetry_multiplicity
_atom_site_Wyckoff_symbol
_atom_site_fract_x
_atom_site_fract_y
_atom_site_fract_z
_atom_site_B_iso_or_equiv
_atom_site_occupancy
_atom_site_attached_hydrogens
Cr1 Cr4+ 2 a 0 0 0 . 1. 0
O1 O2- 4 f 0.30240(8) 0.30240(8) 0 . 1. 0
loop_
_atom_site_aniso_label
_atom_site_aniso_type_symbol
_atom_site_aniso_U_11
_atom_site_aniso_U_22
_atom_site_aniso_U_33
_atom_site_aniso_U_12
_atom_site_aniso_U_13
_atom_site_aniso_U_23
Cr1 Cr4+ 0.0046(3) 0.0046(3) 0.0017(4) 0.0004(4) 0 0
O1 O2- 0.0061(2) 0.0061(2) 0.0044(2) -.0020(2) 0 0
#End of TTdata_202836-ICSD