
#(C) 2016 by FIZ Karlsruhe - Leibniz Institute for Information Infrastructure.  All rights reserved.
data_8146-ICSD
_database_code_ICSD 8146
_audit_creation_date 1980-01-01
_audit_update_record 2004-10-01
_chemical_name_systematic 'Lanthanum titanium(III) oxide'
_chemical_formula_structural 'La Ti O3'
_chemical_formula_sum 'La1 O3 Ti1'
_chemical_name_structure_type Perovskite-GdFeO3
_exptl_crystal_density_diffrn 6.3
_publ_section_title

;
Crystal structures and crystal chemistry of the Re Ti O3 perovskites. RE = La,
Nd, Sm Gd, Y
;
loop_
_citation_id
_citation_journal_full
_citation_year
_citation_journal_volume
_citation_page_first
_citation_page_last
_citation_journal_id_ASTM
primary 'Journal of Solid State Chemistry' 1979 30 35 44 JSSCBI
loop_
_publ_author_name
'MacLean, D.A.'
'Ng, H.N.'
'Greedan, J.E.'
_cell_length_a 5.601(2)
_cell_length_b 5.590(2)
_cell_length_c 7.906(4)
_cell_angle_alpha 90.
_cell_angle_beta 90.
_cell_angle_gamma 90.
_cell_volume 247.53
_cell_formula_units_Z 4
_symmetry_space_group_name_H-M 'P b n m'
_symmetry_Int_Tables_number 62
_refine_ls_R_factor_all 0.05
loop_
_symmetry_equiv_pos_site_id
_symmetry_equiv_pos_as_xyz
1 '-x+1/2, y+1/2, z'
2 'x, y, -z+1/2'
3 'x+1/2, -y+1/2, z+1/2'
4 '-x, -y, -z'
5 'x+1/2, -y+1/2, -z'
6 '-x, -y, z+1/2'
7 '-x+1/2, y+1/2, -z+1/2'
8 'x, y, z'
loop_
_atom_type_symbol
_atom_type_oxidation_number
La3+ 3
Ti3+ 3
O2- -2
loop_
_atom_site_label
_atom_site_type_symbol
_atom_site_symmetry_multiplicity
_atom_site_Wyckoff_symbol
_atom_site_fract_x
_atom_site_fract_y
_atom_site_fract_z
_atom_site_B_iso_or_equiv
_atom_site_occupancy
_atom_site_attached_hydrogens
La1 La3+ 4 c 0.9949(4) 0.0323(19) 0.25 . 1. 0
Ti1 Ti3+ 4 b 0 0.5 0 0.0086 1. 0
O1 O2- 4 c 0.0696(48) 0.4912(13) 0.25 . 1. 0
O2 O2- 8 d 0.7150(22) 0.2861(22) 0.0368(15) . 1. 0
loop_
_atom_site_aniso_label
_atom_site_aniso_type_symbol
_atom_site_aniso_U_11
_atom_site_aniso_U_22
_atom_site_aniso_U_33
_atom_site_aniso_U_12
_atom_site_aniso_U_13
_atom_site_aniso_U_23
La1 La3+ 0.0139(4) 0.0186(16) 0.0124(4) -.0015(4) 0 0
O1 O2- 0.0225(109) 0.0071(65) 0.0295(152) -.0041(25) 0 0
O2 O2- 0.0199(33) 0.0182(30) 0.0195(36) -.0058(31) -.0036(35) 0.0034(35)
#End of TTdata_8146-ICSD