
#(C) 2016 by FIZ Karlsruhe - Leibniz Institute for Information Infrastructure.  All rights reserved.
data_80830-ICSD
_database_code_ICSD 80830
_audit_creation_date 1997-05-13
_audit_update_record 2008-02-01
_chemical_name_systematic 'Molybdenum(IV) oxide'
_chemical_formula_structural 'Mo O2'
_chemical_formula_sum 'Mo1 O2'
_chemical_name_structure_type MoO2
_chemical_name_mineral Tugarinovite
_exptl_crystal_density_diffrn 6.46
_publ_section_title
'Neutron powder diffraction study of molybdenum and tungsten dioxides'
loop_
_citation_id
_citation_journal_full
_citation_year
_citation_journal_volume
_citation_page_first
_citation_page_last
_citation_journal_id_ASTM
primary 'Australian Journal of Chemistry' 1995 48 1473 1477 AJCHAS
loop_
_publ_author_name
'Bolzan, A.A.'
'Kennedy, B.J.'
'Howard, C.J.'
_cell_length_a 5.6096(2)
_cell_length_b 4.8570(2)
_cell_length_c 5.6259(22)
_cell_angle_alpha 90.
_cell_angle_beta 120.912(2)
_cell_angle_gamma 90.
_cell_volume 131.51
_cell_formula_units_Z 4
_symmetry_space_group_name_H-M 'P 1 21/c 1'
_symmetry_Int_Tables_number 14
_refine_ls_R_factor_all 0.016
loop_
_symmetry_equiv_pos_site_id
_symmetry_equiv_pos_as_xyz
1 'x, -y+1/2, z+1/2'
2 '-x, -y, -z'
3 '-x, y+1/2, -z+1/2'
4 'x, y, z'
loop_
_atom_type_symbol
_atom_type_oxidation_number
Mo4+ 4
O2- -2
loop_
_atom_site_label
_atom_site_type_symbol
_atom_site_symmetry_multiplicity
_atom_site_Wyckoff_symbol
_atom_site_fract_x
_atom_site_fract_y
_atom_site_fract_z
_atom_site_B_iso_or_equiv
_atom_site_occupancy
_atom_site_attached_hydrogens
Mo1 Mo4+ 4 e 0.2321(5) -.0077(7) 0.0169(5) . 1. 0
O1 O2- 4 e 0.1103(5) 0.2136(6) 0.2329(4) . 1. 0
O2 O2- 4 e 0.3916(6) 0.6986(6) 0.2982(5) . 1. 0
loop_
_atom_site_aniso_label
_atom_site_aniso_type_symbol
_atom_site_aniso_U_11
_atom_site_aniso_U_22
_atom_site_aniso_U_33
_atom_site_aniso_U_12
_atom_site_aniso_U_13
_atom_site_aniso_U_23
Mo1 Mo4+ 0.0079(7) 0.0059(6) 0.0057(8) 0.0009(6) -.0019(8) 0.0030(11)
O1 O2- 0.0041(12) 0.0075(12) 0.0037(13) -.0019(8) 0.0018(11) -.0025(8)
O2 O2- 0.0088(13) 0.0076(12) 0.0055(12) 0.0030(11) 0.0056(12) 0.0028(8)
#End of TTdata_80830-ICSD