
#(C) 2017 by FIZ Karlsruhe - Leibniz Institute for Information Infrastructure.  All rights reserved.
data_154021-ICSD
_database_code_ICSD 154021
_audit_creation_date 2007-04-01
_audit_update_record 2008-02-01
_chemical_name_systematic 'Rhenium(IV) oxide'
_chemical_formula_structural 'Re O2'
_chemical_formula_sum 'O2 Re1'
_chemical_name_structure_type Rutile-TiO2
_exptl_crystal_density_diffrn 11.21
_publ_section_title

;
Structure and electronic properties of new rutile-like rhenium(IV) dioxide Re
O2
;
loop_
_citation_id
_citation_journal_full
_citation_year
_citation_journal_volume
_citation_page_first
_citation_page_last
_citation_journal_id_ASTM
primary 'Physics Letters A' 2005 348 66 70 PYLAAG
loop_
_publ_author_name
'Ivanovskii, A.L.'
'Chupakhina, T.I.'
'Zubkov, V.G.'
'Tyutyunnik, A.P.'
'Krasilnikov, V.N.'
'Bazuev, G.V.'
'Okatov, S.V.'
'Lichtenstein, A.I.'
_cell_length_a 4.79825(5)
_cell_length_b 4.79825(5)
_cell_length_c 2.80770(4)
_cell_angle_alpha 90.
_cell_angle_beta 90.
_cell_angle_gamma 90.
_cell_volume 64.64
_cell_formula_units_Z 2
_symmetry_space_group_name_H-M 'P 42/m n m'
_symmetry_Int_Tables_number 136
_refine_ls_R_factor_all 0.0179
loop_
_symmetry_equiv_pos_site_id
_symmetry_equiv_pos_as_xyz
1 '-y+1/2, x+1/2, -z+1/2'
2 'y+1/2, -x+1/2, -z+1/2'
3 'y, x, -z'
4 '-y, -x, -z'
5 'y+1/2, -x+1/2, z+1/2'
6 '-y+1/2, x+1/2, z+1/2'
7 '-y, -x, z'
8 'y, x, z'
9 'x+1/2, -y+1/2, -z+1/2'
10 '-x+1/2, y+1/2, -z+1/2'
11 'x, y, -z'
12 '-x, -y, -z'
13 '-x+1/2, y+1/2, z+1/2'
14 'x+1/2, -y+1/2, z+1/2'
15 '-x, -y, z'
16 'x, y, z'
loop_
_atom_type_symbol
_atom_type_oxidation_number
Re4+ 4
O2- -2
loop_
_atom_site_label
_atom_site_type_symbol
_atom_site_symmetry_multiplicity
_atom_site_Wyckoff_symbol
_atom_site_fract_x
_atom_site_fract_y
_atom_site_fract_z
_atom_site_B_iso_or_equiv
_atom_site_occupancy
_atom_site_attached_hydrogens
Re1 Re4+ 2 a 0 0 0 0.0223(2) 1. 0
O1 O2- 4 f 0.2906(2) 0.2906(2) 0 0.0043(5) 1. 0
#End of TTdata_154021-ICSD