
#(C) 2017 by FIZ Karlsruhe - Leibniz Institute for Information Infrastructure.  All rights reserved.
data_28498-ICSD
_database_code_ICSD 28498
_audit_creation_date 1980-01-01
_audit_update_record 2006-10-01
_chemical_name_systematic 'Rhodium(IV) oxide'
_chemical_formula_structural 'Rh O2'
_chemical_formula_sum 'O2 Rh1'
_chemical_name_structure_type Rutile-TiO2
_exptl_crystal_density_diffrn 7.11
_publ_section_title

;
Synthesis and properties of two new members of the rutile family Rh O2 and Pt
O2
;
loop_
_citation_id
_citation_journal_full
_citation_year
_citation_journal_volume
_citation_page_first
_citation_page_last
_citation_journal_id_ASTM
primary 'Solid State Communications' 1968 6 139 143 SSCOA4
loop_
_publ_author_name
'Shannon, R.D.'
_cell_length_a 4.4862(5)
_cell_length_b 4.4862(5)
_cell_length_c 3.0884(5)
_cell_angle_alpha 90.
_cell_angle_beta 90.
_cell_angle_gamma 90.
_cell_volume 62.16
_cell_formula_units_Z 2
_symmetry_space_group_name_H-M 'P 42/m n m'
_symmetry_Int_Tables_number 136
loop_
_symmetry_equiv_pos_site_id
_symmetry_equiv_pos_as_xyz
1 '-y+1/2, x+1/2, -z+1/2'
2 'y+1/2, -x+1/2, -z+1/2'
3 'y, x, -z'
4 '-y, -x, -z'
5 'y+1/2, -x+1/2, z+1/2'
6 '-y+1/2, x+1/2, z+1/2'
7 '-y, -x, z'
8 'y, x, z'
9 'x+1/2, -y+1/2, -z+1/2'
10 '-x+1/2, y+1/2, -z+1/2'
11 'x, y, -z'
12 '-x, -y, -z'
13 '-x+1/2, y+1/2, z+1/2'
14 'x+1/2, -y+1/2, z+1/2'
15 '-x, -y, z'
16 'x, y, z'
loop_
_atom_type_symbol
_atom_type_oxidation_number
Rh4+ 4
O2- -2
loop_
_atom_site_label
_atom_site_type_symbol
_atom_site_symmetry_multiplicity
_atom_site_Wyckoff_symbol
_atom_site_fract_x
_atom_site_fract_y
_atom_site_fract_z
_atom_site_B_iso_or_equiv
_atom_site_occupancy
_atom_site_attached_hydrogens
Rh1 Rh4+ 2 a 0 0 0 . 1. 0
O1 O2- 4 f 0.318 0.318 0 . 1. 0
#End of TTdata_28498-ICSD