
#(C) 2016 by FIZ Karlsruhe - Leibniz Institute for Information Infrastructure.  All rights reserved.
data_75561-ICSD
_database_code_ICSD 75561
_audit_creation_date 1996-04-22
_audit_update_record 2006-04-01
_chemical_name_systematic 'Strontium ruthenate(IV)'
_chemical_formula_structural 'Sr (Ru O3)'
_chemical_formula_sum 'O3 Ru1 Sr1'
_chemical_name_structure_type Perovskite-GdFeO3
_chemical_name_mineral 'Perovskite (Ru,Sr-substituted)'
_exptl_crystal_density_diffrn 6.5
_publ_section_title

;
Structural characterization of the orthorhombic perovskites: (A Ru O3 (A= Ca,
Sr, La, Pr))
;
loop_
_citation_id
_citation_journal_full
_citation_year
_citation_journal_volume
_citation_page_first
_citation_page_last
_citation_journal_id_ASTM
primary 'Materials Research Bulletin' 1994 29 1271 1280 MRBUAC
loop_
_publ_author_name
'Kobayashi, H.'
'Nagata, M.'
'Kanno, R.'
'Kawamoto, Y.'
_cell_length_a 5.53283(11)
_cell_length_b 7.84712(16)
_cell_length_c 5.56926(9)
_cell_angle_alpha 90.
_cell_angle_beta 90.
_cell_angle_gamma 90.
_cell_volume 241.8
_cell_formula_units_Z 4
_symmetry_space_group_name_H-M 'P n m a'
_symmetry_Int_Tables_number 62
_refine_ls_R_factor_all 0.12
loop_
_symmetry_equiv_pos_site_id
_symmetry_equiv_pos_as_xyz
1 'x+1/2, y, -z+1/2'
2 'x, -y+1/2, z'
3 '-x+1/2, y+1/2, z+1/2'
4 '-x, -y, -z'
5 '-x+1/2, -y, z+1/2'
6 '-x, y+1/2, -z'
7 'x+1/2, -y+1/2, -z+1/2'
8 'x, y, z'
loop_
_atom_type_symbol
_atom_type_oxidation_number
Sr2+ 2
Ru4+ 4
O2- -2
loop_
_atom_site_label
_atom_site_type_symbol
_atom_site_symmetry_multiplicity
_atom_site_Wyckoff_symbol
_atom_site_fract_x
_atom_site_fract_y
_atom_site_fract_z
_atom_site_B_iso_or_equiv
_atom_site_occupancy
_atom_site_attached_hydrogens
Sr1 Sr2+ 4 c 0.0170(5) 0.25 -.0019(15) 0.45(4) 1. 0
Ru1 Ru4+ 4 b 0 0 0.5 0.16(3) 1. 0
O1 O2- 8 d 0.276(4) 0.029(3) 0.723(4) 0.6(2) 1. 0
O2 O2- 4 c 0.498(3) 0.25 0.046(5) 0.6(2) 1. 0
#End of TTdata_75561-ICSD