
#(C) 2018 by FIZ Karlsruhe - Leibniz Institute for Information Infrastructure.  All rights reserved.
data_15254-ICSD
_database_code_ICSD 15254
_audit_creation_date 1981-12-31
_audit_update_record 2012-02-01
_chemical_name_systematic 'Tungsten oxide (18/49)'
_chemical_formula_structural 'W18 O49'
_chemical_formula_sum 'O49 W18'
_chemical_name_structure_type W18O49
_exptl_crystal_density_diffrn 7.71
_publ_section_title
'Crystal structure and charge carrier concentration of W18 O49'
loop_
_citation_id
_citation_journal_full
_citation_year
_citation_journal_volume
_citation_page_first
_citation_page_last
_citation_journal_id_ASTM
primary 'Journal of Solid State Chemistry' 1981 36 45 51 JSSCBI
loop_
_publ_author_name
'Viswanathan, K.'
'Brandt, K.'
'Salje, E.'
_cell_length_a 18.334
_cell_length_b 3.786
_cell_length_c 14.044
_cell_angle_alpha 90.
_cell_angle_beta 115.2
_cell_angle_gamma 90.
_cell_volume 882.05
_cell_formula_units_Z 1
_symmetry_space_group_name_H-M 'P 1 2/m 1'
_symmetry_Int_Tables_number 10
_refine_ls_R_factor_all 0.065
loop_
_symmetry_equiv_pos_site_id
_symmetry_equiv_pos_as_xyz
1 '-x, y, -z'
2 '-x, -y, -z'
3 'x, -y, z'
4 'x, y, z'
loop_
_atom_type_symbol
_atom_type_oxidation_number
W5+ 5
W6+ 6
W5+ 5
O2- -2
loop_
_atom_site_label
_atom_site_type_symbol
_atom_site_symmetry_multiplicity
_atom_site_Wyckoff_symbol
_atom_site_fract_x
_atom_site_fract_y
_atom_site_fract_z
_atom_site_B_iso_or_equiv
_atom_site_occupancy
_atom_site_attached_hydrogens
W1 W5+ 2 n 0.0729(1) 0.5 0.0017(1) . 1. 0
W2 W6+ 2 n 0.0863(1) 0.5 0.2867(1) . 1. 0
W3 W6+ 2 n 0.1270(1) 0.5 0.7589(1) . 1. 0
W4 W6+ 2 n 0.2214(1) 0.5 0.5731(1) . 1. 0
W5 W6+ 2 n 0.2559(1) 0.5 0.0098(1) . 1. 0
W6 W5+ 2 n 0.2759(1) 0.5 0.2519(1) . 1. 0
W7 W5+ 2 n 0.3582(1) 0.5 0.8640(1) . 1. 0
W8 W5+ 2 n 0.4141(1) 0.5 0.5378(1) . 1. 0
W9 W5+ 2 n 0.4529(1) 0.5 0.1681(1) . 1. 0
O1 O2- 2 m 0.0792(3) 0 0.0039(3) . 1. 0
O2 O2- 2 m 0.0849(3) 0 0.2803(3) . 1. 0
O3 O2- 2 m 0.1305(3) 0 0.7654(3) . 1. 0
O4 O2- 2 m 0.2170(3) 0 0.5784(3) . 1. 0
O5 O2- 2 m 0.2590(3) 0 0.0144(3) . 1. 0
O6 O2- 2 m 0.2773(3) 0 0.2453(3) . 1. 0
O7 O2- 2 m 0.3620(3) 0 0.8761(3) . 1. 0
O8 O2- 2 m 0.4100(3) 0 0.5405(3) . 1. 0
O9 O2- 2 m 0.4501(3) 0 0.1658(3) . 1. 0
O10 O2- 2 n 0.0240(3) 0.5 0.7258(3) . 1. 0
O11 O2- 2 n 0.0373(3) 0.5 0.1160(3) . 1. 0
O12 O2- 2 n 0.1267(3) 0.5 0.9112(3) . 1. 0
O13 O2- 2 n 0.1334(3) 0.5 0.4293(3) . 1. 0
O14 O2- 2 n 0.1400(3) 0.5 0.6450(3) . 1. 0
O15 O2- 2 n 0.1825(3) 0.5 0.1014(3) . 1. 0
O16 O2- 2 n 0.1870(3) 0.5 0.2830(3) . 1. 0
O17 O2- 2 n 0.2470(3) 0.5 0.8681(3) . 1. 0
O18 O2- 2 n 0.2870(3) 0.5 0.7100(3) . 1. 0
O19 O2- 2 n 0.3111(3) 0.5 0.5530(3) . 1. 0
O20 O2- 2 n 0.3430(3) 0.5 0.1530(3) . 1. 0
O21 O2- 2 n 0.3584(3) 0.5 0.3870(3) . 1. 0
O22 O2- 2 n 0.3550(3) 0.5 0.0100(3) . 1. 0
O23 O2- 2 n 0.4400(3) 0.5 0.8450(3) . 1. 0
O24 O2- 2 n 0.5250(3) 0.5 0.3150(3) . 1. 0
O25 O2- 1 h 0.5 0.5 0.5 . 1. 0
#End of TTdata_15254-ICSD