
#(C) 2017 by FIZ Karlsruhe - Leibniz Institute for Information Infrastructure.  All rights reserved.
data_8217-ICSD
_database_code_ICSD 8217
_audit_creation_date 1980-01-01
_audit_update_record 2004-10-01
_chemical_name_systematic 'Tungsten(IV) oxide'
_chemical_formula_structural 'W O2'
_chemical_formula_sum 'O2 W1'
_chemical_name_structure_type MoO2
_exptl_crystal_density_diffrn 10.98
_publ_section_title
'Tungsten dioxide. Structure refinement by powder neutron diffraction'
loop_
_citation_id
_citation_journal_full
_citation_year
_citation_journal_volume
_citation_page_first
_citation_page_last
_citation_journal_id_ASTM
primary 'Acta Crystallographica B (24,1968-38,1982)' 1979 35 2199 2201 ACBCAR
loop_
_publ_author_name
'Palmer, D.J.'
'Dickens, P.G.'
_cell_length_a 5.563(2)
_cell_length_b 4.896(3)
_cell_length_c 5.563(2)
_cell_angle_alpha 90.
_cell_angle_beta 120.47(1)
_cell_angle_gamma 90.
_cell_volume 130.59
_cell_formula_units_Z 4
_symmetry_space_group_name_H-M 'P 1 21/c 1'
_symmetry_Int_Tables_number 14
_refine_ls_R_factor_all 0.0608
loop_
_symmetry_equiv_pos_site_id
_symmetry_equiv_pos_as_xyz
1 'x, -y+1/2, z+1/2'
2 '-x, -y, -z'
3 '-x, y+1/2, -z+1/2'
4 'x, y, z'
loop_
_atom_type_symbol
_atom_type_oxidation_number
W4+ 4
O2- -2
loop_
_atom_site_label
_atom_site_type_symbol
_atom_site_symmetry_multiplicity
_atom_site_Wyckoff_symbol
_atom_site_fract_x
_atom_site_fract_y
_atom_site_fract_z
_atom_site_B_iso_or_equiv
_atom_site_occupancy
_atom_site_attached_hydrogens
W1 W4+ 4 e 0.2278(11) -.0102(14) 0.0111(12) 0.19 1. 0
O1 O2- 4 e 0.1119(11) 0.2186(11) 0.2334(8) 0.31 1. 0
O2 O2- 4 e 0.3900(9) 0.7024(12) 0.2986(9) 0.57 1. 0
#End of TTdata_8217-ICSD