
#(C) 2017 by FIZ Karlsruhe - Leibniz Institute for Information Infrastructure.  All rights reserved.
data_415959-ICSD
_database_code_ICSD 415959
_audit_creation_date 2007-04-01
_audit_update_record 2008-02-01
_chemical_name_systematic 'Disilver bismuth(III,V) trioxide'
_chemical_formula_structural 'Ag2 Bi O3'
_chemical_formula_sum 'Ag2 Bi1 O3'
_exptl_crystal_density_diffrn 8.67
_cell_measurement_temperature 298.
_publ_section_title 'Charge ordering in Ag2 Bi O3'
loop_
_citation_id
_citation_journal_full
_citation_year
_citation_journal_volume
_citation_page_first
_citation_page_last
_citation_journal_id_ASTM
primary 'Solid State Sciences' 2006 8 267 276 SSSCFJ
loop_
_publ_author_name
'Oberndorfer, C.P.M.'
'Dinnebier, R.E.'
'Ibberson, R.M.'
'Jansen, M.'
_cell_length_a 5.9830(8)
_cell_length_b 6.3239(7)
_cell_length_c 9.5762(13)
_cell_angle_alpha 90.
_cell_angle_beta 90.
_cell_angle_gamma 90.
_cell_volume 362.32
_cell_formula_units_Z 4
_symmetry_space_group_name_H-M 'P n n 2'
_symmetry_Int_Tables_number 34
_refine_ls_R_factor_all 0.0321
loop_
_symmetry_equiv_pos_site_id
_symmetry_equiv_pos_as_xyz
1 'x+1/2, -y+1/2, z+1/2'
2 '-x+1/2, y+1/2, z+1/2'
3 '-x, -y, z'
4 'x, y, z'
loop_
_atom_type_symbol
_atom_type_oxidation_number
Ag1+ 1
Bi5+ 5
Bi3+ 3
O2- -2
loop_
_atom_site_label
_atom_site_type_symbol
_atom_site_symmetry_multiplicity
_atom_site_Wyckoff_symbol
_atom_site_fract_x
_atom_site_fract_y
_atom_site_fract_z
_atom_site_B_iso_or_equiv
_atom_site_occupancy
_atom_site_attached_hydrogens
Ag1 Ag1+ 4 c 0.2528(2) -0.00162(11) 0.49543(12) 0.02090(10) 1 0
Ag2 Ag1+ 4 c 0.02559(6) 0.2512(2) 0.25020(15) 0.02371(9) 1 0
Bi1 Bi5+ 2 a 0. 0. 0.899152(16) 0.00736(7) 1 0
Bi2 Bi3+ 2 b 0. 0.5 0.60742(3) 0.00882(8) 1 0
O1 O2- 4 c 0.8296(8) 0.1805(7) 0.0540(6) 0.0142(10) 1 0
O2 O2- 4 c 0.1954(8) 0.6766(7) 0.4338(5) 0.0103(9) 1 0
O3 O2- 4 c 0.3920(7) 0.2903(8) 0.2459(10) 0.0330(15) 1 0
loop_
_atom_site_aniso_label
_atom_site_aniso_type_symbol
_atom_site_aniso_U_11
_atom_site_aniso_U_22
_atom_site_aniso_U_33
_atom_site_aniso_U_12
_atom_site_aniso_U_13
_atom_site_aniso_U_23
Ag1 Ag1+ 0.02002(18) 0.00766(16) 0.0350(3) -0.00081(11) -0.00487(18)
-0.00098(14)
Ag2 Ag1+ 0.02099(14) 0.0311(2) 0.01908(18) 0.0009(4) 0.0004(6) -0.00815(17)
Bi1 Bi5+ 0.00937(15) 0.00518(14) 0.00754(14) 0.00025(10) 0. 0.
Bi2 Bi3+ 0.01044(17) 0.00778(17) 0.00823(15) -0.00063(11) 0. 0.
O1 O2- 0.017(2) 0.0082(19) 0.017(2) 0.0025(16) 0.0019(17) -0.0065(18)
O2 O2- 0.0088(18) 0.0109(19) 0.0112(19) 0.0018(15) 0.0018(16) 0.0046(16)
O3 O2- 0.0178(17) 0.045(4) 0.036(2) 0.0006(19) 0.002(3) -0.030(3)
#End of TTdata_415959-ICSD