
#(C) 2016 by FIZ Karlsruhe - Leibniz Institute for Information Infrastructure.  All rights reserved.
data_8193-ICSD
_database_code_ICSD 8193
_audit_creation_date 1980-01-01
_chemical_name_systematic 'Barium vanadium(IV) sulfide'
_chemical_formula_structural 'Ba V S3'
_chemical_formula_sum 'Ba1 S3 V1'
_chemical_name_structure_type BaNiO3
_exptl_crystal_density_diffrn 4.31
_publ_section_title 'Influence of annealing on the lattice constants of Ba V S3'
loop_
_citation_id
_citation_journal_full
_citation_year
_citation_journal_volume
_citation_page_first
_citation_page_last
_citation_journal_id_ASTM
primary 'Acta Crystallographica B (24,1968-38,1982)' 1979 35 2473 2475 ACBCAR
loop_
_publ_author_name
'Kelber, J.'
'Jorgensen, J.D.'
'Mueller, M.H.'
_cell_length_a 6.7160(4)
_cell_length_b 6.7160(4)
_cell_length_c 5.6168(6)
_cell_angle_alpha 90.
_cell_angle_beta 90.
_cell_angle_gamma 120.
_cell_volume 219.4
_cell_formula_units_Z 2
_symmetry_space_group_name_H-M 'P 63/m m c'
_symmetry_Int_Tables_number 194
_refine_ls_R_factor_all 0.017
loop_
_symmetry_equiv_pos_site_id
_symmetry_equiv_pos_as_xyz
1 'x, x-y, -z+1/2'
2 '-x+y, y, -z+1/2'
3 '-y, -x, -z+1/2'
4 '-x+y, -x, -z+1/2'
5 '-y, x-y, -z+1/2'
6 'x, y, -z+1/2'
7 '-x, -x+y, z+1/2'
8 'x-y, -y, z+1/2'
9 'y, x, z+1/2'
10 'x-y, x, z+1/2'
11 'y, -x+y, z+1/2'
12 '-x, -y, z+1/2'
13 '-x, -x+y, -z'
14 'x-y, -y, -z'
15 'y, x, -z'
16 'x-y, x, -z'
17 'y, -x+y, -z'
18 '-x, -y, -z'
19 'x, x-y, z'
20 '-x+y, y, z'
21 '-y, -x, z'
22 '-x+y, -x, z'
23 '-y, x-y, z'
24 'x, y, z'
loop_
_atom_type_symbol
_atom_type_oxidation_number
Ba2+ 2
V4+ 4
S2- -2
loop_
_atom_site_label
_atom_site_type_symbol
_atom_site_symmetry_multiplicity
_atom_site_Wyckoff_symbol
_atom_site_fract_x
_atom_site_fract_y
_atom_site_fract_z
_atom_site_B_iso_or_equiv
_atom_site_occupancy
_atom_site_attached_hydrogens
Ba1 Ba2+ 2 d 0.3333 0.6667 0.75 0.6 1. 0
V1 V4+ 2 a 0 0 0 0.5 1. 0
S1 S2- 6 h 0.167(1) 0.334(2) 0.25 0.6 1. 0
#End of TTdata_8193-ICSD