
#(C) 2017 by FIZ Karlsruhe - Leibniz Institute for Information Infrastructure.  All rights reserved.
data_195420-ICSD
_database_code_ICSD 195420
_audit_creation_date 2016-02-01
_chemical_name_systematic 'Calcium iron(IV) manganese(IV) oxide (2/1.07/0.93/6)'
_chemical_formula_structural 'Ca2 (Fe1.07 Mn0.93) O6'
_chemical_formula_sum 'Ca2 Fe1.07 Mn0.93 O6'
_exptl_crystal_density_diffrn 4.5
_cell_measurement_temperature 293.
_publ_section_title

;
Two-dimensional charge disproportionation of the unusual high valence state
Fe(4+) in a layered double perovskite
;
loop_
_citation_id
_citation_journal_full
_citation_year
_citation_journal_volume
_citation_page_first
_citation_page_last
_citation_journal_id_ASTM
primary 'Journal of the American Chemical Society' 2015 137 7468 7473 JACSAT
loop_
_publ_author_name
'Hosaka, Yoshiteru'
'Ichikawa, Noriya'
'Saito, Takashi'
'Manuel, Pascal'
'Khalyavin, Dmitry'
'Attfield, J. Paul'
'Shimakawa, Yuichi'
_cell_length_a 7.5077(4)
_cell_length_b 5.3055(2)
_cell_length_c 5.3217(3)
_cell_angle_alpha 90.
_cell_angle_beta 90.00(1)
_cell_angle_gamma 90.
_cell_volume 211.97
_cell_formula_units_Z 2
_symmetry_space_group_name_H-M 'P 1 21/c 1'
_symmetry_Int_Tables_number 14
_refine_ls_R_factor_all 0.0469
loop_
_symmetry_equiv_pos_site_id
_symmetry_equiv_pos_as_xyz
1 'x, -y+1/2, z+1/2'
2 '-x, -y, -z'
3 '-x, y+1/2, -z+1/2'
4 'x, y, z'
loop_
_atom_type_symbol
_atom_type_oxidation_number
Ca2+ 2
Fe4+ 4
Mn4+ 4
Fe4+ 4
O2- -2
loop_
_atom_site_label
_atom_site_type_symbol
_atom_site_symmetry_multiplicity
_atom_site_Wyckoff_symbol
_atom_site_fract_x
_atom_site_fract_y
_atom_site_fract_z
_atom_site_B_iso_or_equiv
_atom_site_occupancy
_atom_site_attached_hydrogens
Ca1 Ca2+ 4 e 0.2540(7) 0.503(2) 0.529(2) 1.2(1) 1. 0
Fe1 Fe4+ 2 a 0 0 0 1.0(1) 0.922(4) 0
Mn1 Mn4+ 2 a 0 0 0 1.0(1) 0.078(4) 0
Mn2 Mn4+ 2 d 0.5 0.5 0 1.6(4) 0.856(2) 0
Fe2 Fe4+ 2 d 0.5 0.5 0 1.6(4) 0.144(2) 0
O1 O2- 4 e 0.2497(7) 0.060(1) 0.493(1) 1.0(1) 1. 0
O2 O2- 4 e 0.032(1) 0.712(2) 0.286(2) 2.0(2) 1. 0
O3 O2- 4 e 0.5354(9) 0.286(2) 0.716(2) 1.7(1) 1. 0
#End of TTdata_195420-ICSD