
#(C) 2016 by FIZ Karlsruhe - Leibniz Institute for Information Infrastructure.  All rights reserved.
data_291046-ICSD
_database_code_ICSD 291046
_audit_creation_date 2015-08-01
_chemical_name_systematic 'Calcium bismuth trioxomanganate (0.75/0.25/1)'
_chemical_formula_structural 'Ca0.75 Bi0.25 Mn O3'
_chemical_formula_sum 'Bi0.25 Ca0.75 Mn1 O3'
_chemical_name_structure_type Perovskite-GdFeO3
_exptl_crystal_density_diffrn 5.72
_cell_measurement_temperature 293.
_publ_section_title

;
Phase separation over an extended compositional range: Studies of the Ca1-x
Bix Mn O3 (x<=0.25) phase diagram
;
loop_
_citation_id
_citation_journal_full
_citation_year
_citation_journal_volume
_citation_page_first
_citation_page_last
_citation_journal_id_ASTM
primary 'Physical Review, Serie 3. B - Condensed Matter (18,1978-)' 2000 62
14928 14942 PRBMDO
loop_
_publ_author_name
'Santhosh, P.N.'
'Goldberger, J.'
'Woodward, P.M.'
'Vogt, T.'
'Lee, W.P.'
'Epstein, A.J.'
_cell_length_a 5.3652(2)
_cell_length_b 7.5256(3)
_cell_length_c 5.3299(2)
_cell_angle_alpha 90.
_cell_angle_beta 90.
_cell_angle_gamma 90.
_cell_volume 215.2
_cell_formula_units_Z 4
_symmetry_space_group_name_H-M 'P n m a'
_symmetry_Int_Tables_number 62
_refine_ls_R_factor_all 0.0452
loop_
_symmetry_equiv_pos_site_id
_symmetry_equiv_pos_as_xyz
1 'x+1/2, y, -z+1/2'
2 'x, -y+1/2, z'
3 '-x+1/2, y+1/2, z+1/2'
4 '-x, -y, -z'
5 '-x+1/2, -y, z+1/2'
6 '-x, y+1/2, -z'
7 'x+1/2, -y+1/2, -z+1/2'
8 'x, y, z'
loop_
_atom_type_symbol
_atom_type_oxidation_number
Ca2+ 2
Bi3+ 3
Mn3+ 3.75
O2- -2
loop_
_atom_site_label
_atom_site_type_symbol
_atom_site_symmetry_multiplicity
_atom_site_Wyckoff_symbol
_atom_site_fract_x
_atom_site_fract_y
_atom_site_fract_z
_atom_site_B_iso_or_equiv
_atom_site_occupancy
_atom_site_attached_hydrogens
Ca1 Ca2+ 4 c 0.0367(4) 0.25 -0.0054(6) 0.0113(4) 0.75 0
Bi1 Bi3+ 4 c 0.0367(4) 0.25 -0.0054(6) 0.0113(4) 0.25 0
Mn1 Mn3+ 4 b 0 0 0.5 0.0071(5) 1. 0
O1 O2- 4 c -0.0141(4) 0.25 0.4308(4) . 1. 0
O2 O2- 8 d 0.7135(3) -0.0350(2) 0.2879(3) . 1. 0
loop_
_atom_site_aniso_label
_atom_site_aniso_type_symbol
_atom_site_aniso_U_11
_atom_site_aniso_U_22
_atom_site_aniso_U_33
_atom_site_aniso_U_12
_atom_site_aniso_U_13
_atom_site_aniso_U_23
O1 O2- 0.017(1) 0.001(1) 0.012(1) 0 0.001(1) 0
O2 O2- 0.0134(6) 0.0077(7) 0.0100(6) -0.0004(6) -0.0009(6) 0.0003(7)
#End of TTdata_291046-ICSD