
#(C) 2017 by FIZ Karlsruhe - Leibniz Institute for Information Infrastructure.  All rights reserved.
data_246000-ICSD
_database_code_ICSD 246000
_audit_creation_date 2009-02-01
_audit_update_record 2016-08-01
_chemical_name_systematic
'Calcium tricopper(II) tetrairon(III/IV) dodecaoxide - HT'
_chemical_formula_structural 'Ca Cu2.9 Fe4 O12'
_chemical_formula_sum 'Ca1 Cu2.9 Fe4 O12'
_chemical_name_structure_type NaMn7O12
_exptl_crystal_density_diffrn 5.47
_cell_measurement_temperature 293.
_publ_section_title

;
A perovskite containing quadrivalent iron as a charge-disproportionated
ferrimagnet
;
loop_
_citation_id
_citation_journal_full
_citation_year
_citation_journal_volume
_citation_page_first
_citation_page_last
_citation_journal_id_ASTM
primary 'Angewandte Chemie. International Edition' 2008 47 7032 7035 ACIEF5
loop_
_publ_author_name
'Yamada, I.'
'Takata, K.'
'Hayashi, N.'
'Shinohara, S.'
'Azuma, M.'
'Mori, S.'
'Muranaka, S.'
'Shimakawa, Y.'
'Takano, M.'
_cell_length_a 7.29546(3)
_cell_length_b 7.29546(3)
_cell_length_c 7.29546(3)
_cell_angle_alpha 90.
_cell_angle_beta 90.
_cell_angle_gamma 90.
_cell_volume 388.29
_cell_formula_units_Z 2
_symmetry_space_group_name_H-M 'I m -3'
_symmetry_Int_Tables_number 204
_refine_ls_R_factor_all 0.0241
loop_
_symmetry_equiv_pos_site_id
_symmetry_equiv_pos_as_xyz
1 '-z, x, y'
2 'z, x, -y'
3 'z, -x, y'
4 '-z, -x, -y'
5 'y, -z, x'
6 '-y, z, x'
7 'y, z, -x'
8 '-y, -z, -x'
9 'x, y, -z'
10 'x, -y, z'
11 '-x, y, z'
12 '-x, -y, -z'
13 'z, -x, -y'
14 '-z, -x, y'
15 '-z, x, -y'
16 'z, x, y'
17 '-y, z, -x'
18 'y, -z, -x'
19 '-y, -z, x'
20 'y, z, x'
21 '-x, -y, z'
22 '-x, y, -z'
23 'x, -y, -z'
24 'x, y, z'
25 '-z+1/2, x+1/2, y+1/2'
26 'z+1/2, x+1/2, -y+1/2'
27 'z+1/2, -x+1/2, y+1/2'
28 '-z+1/2, -x+1/2, -y+1/2'
29 'y+1/2, -z+1/2, x+1/2'
30 '-y+1/2, z+1/2, x+1/2'
31 'y+1/2, z+1/2, -x+1/2'
32 '-y+1/2, -z+1/2, -x+1/2'
33 'x+1/2, y+1/2, -z+1/2'
34 'x+1/2, -y+1/2, z+1/2'
35 '-x+1/2, y+1/2, z+1/2'
36 '-x+1/2, -y+1/2, -z+1/2'
37 'z+1/2, -x+1/2, -y+1/2'
38 '-z+1/2, -x+1/2, y+1/2'
39 '-z+1/2, x+1/2, -y+1/2'
40 'z+1/2, x+1/2, y+1/2'
41 '-y+1/2, z+1/2, -x+1/2'
42 'y+1/2, -z+1/2, -x+1/2'
43 '-y+1/2, -z+1/2, x+1/2'
44 'y+1/2, z+1/2, x+1/2'
45 '-x+1/2, -y+1/2, z+1/2'
46 '-x+1/2, y+1/2, -z+1/2'
47 'x+1/2, -y+1/2, -z+1/2'
48 'x+1/2, y+1/2, z+1/2'
loop_
_atom_type_symbol
_atom_type_oxidation_number
Ca2+ 2
Cu2+ 2
Fe3+ 3
Fe4+ 4
O2- -2
loop_
_atom_site_label
_atom_site_type_symbol
_atom_site_symmetry_multiplicity
_atom_site_Wyckoff_symbol
_atom_site_fract_x
_atom_site_fract_y
_atom_site_fract_z
_atom_site_B_iso_or_equiv
_atom_site_occupancy
_atom_site_attached_hydrogens
Ca1 Ca2+ 2 a 0 0 0 0.0109(4) 1. 0
Cu1 Cu2+ 6 b 0 0.5 0.5 0.00627(16) 0.968(12) 0
Fe1 Fe3+ 6 b 0 0.5 0.5 0.00627(16) 0.032(12) 0
Fe2 Fe4+ 8 c 0.25 0.25 0.25 0.0010(12) 1. 0
O1 O2- 24 g 0.20809(13) 0.17818(15) 0 0.0076(2) 1. 0
#End of TTdata_246000-ICSD