
#(C) 2016 by FIZ Karlsruhe - Leibniz Institute for Information Infrastructure.  All rights reserved.
data_35008-ICSD
_database_code_ICSD 35008
_audit_creation_date 1982-12-31
_audit_update_record 2006-04-01
_chemical_name_systematic 'Iron sulfide'
_chemical_formula_structural 'Fe S'
_chemical_formula_sum 'Fe1 S1'
_chemical_name_structure_type MnP
_chemical_name_mineral 'Pyrrhotite high'
_exptl_crystal_density_diffrn 4.82
_cell_measurement_temperature 463.
_cell_measurement_pressure 100.
_publ_section_title
'High-pressure and high-temperature polymorphism of iron sulfide'
loop_
_citation_id
_citation_journal_full
_citation_year
_citation_journal_volume
_citation_page_first
_citation_page_last
_citation_journal_id_ASTM
primary 'Acta Crystallographica B (24,1968-38,1982)' 1982 38 1877 1887 ACBCAR
loop_
_publ_author_name
'King, H.E.jr.'
'Prewitt, C.T.'
_cell_length_a 5.825(2)
_cell_length_b 3.466(3)
_cell_length_c 6.003(5)
_cell_angle_alpha 90.
_cell_angle_beta 90.
_cell_angle_gamma 90.
_cell_volume 121.2
_cell_formula_units_Z 4
_symmetry_space_group_name_H-M 'P n m a'
_symmetry_Int_Tables_number 62
loop_
_symmetry_equiv_pos_site_id
_symmetry_equiv_pos_as_xyz
1 'x+1/2, y, -z+1/2'
2 'x, -y+1/2, z'
3 '-x+1/2, y+1/2, z+1/2'
4 '-x, -y, -z'
5 '-x+1/2, -y, z+1/2'
6 '-x, y+1/2, -z'
7 'x+1/2, -y+1/2, -z+1/2'
8 'x, y, z'
loop_
_atom_type_symbol
_atom_type_oxidation_number
Fe2+ 2
S2- -2
loop_
_atom_site_label
_atom_site_type_symbol
_atom_site_symmetry_multiplicity
_atom_site_Wyckoff_symbol
_atom_site_fract_x
_atom_site_fract_y
_atom_site_fract_z
_atom_site_B_iso_or_equiv
_atom_site_occupancy
_atom_site_attached_hydrogens
Fe1 Fe2+ 4 c 0.0035(3) 0.25 0.2352(3) 2.0(1) 1. 0
S1 S2- 4 c 0.2419(5) 0.25 0.5813(8) 1.2(1) 1. 0
#End of TTdata_35008-ICSD