
#(C) 2017 by FIZ Karlsruhe - Leibniz Institute for Information Infrastructure.  All rights reserved.
data_73509-ICSD
_database_code_ICSD 73509
_audit_creation_date 1994-06-30
_chemical_name_systematic 'Potassium molybdenum oxide (0.3/1/3)'
_chemical_formula_structural 'K0.3 Mo O3'
_chemical_formula_sum 'K0.3 Mo1 O3'
_chemical_name_structure_type K.3MoO3
_exptl_crystal_density_diffrn 4.31
_cell_measurement_temperature 192.
_publ_section_title

;
The incommensurately modulated structures of the blue bronzes K0.3MoO3 and
Rb0.3MoO3
;
loop_
_citation_id
_citation_journal_full
_citation_year
_citation_journal_volume
_citation_page_first
_citation_page_last
_citation_journal_id_ASTM
primary 'Acta Crystallographica, Section B: Structural Science' 1993 49 579 591
ASBSDK
loop_
_publ_author_name
'Schutte, W.J.'
'de Boer, J.L.'
_cell_length_a 18.211(2)
_cell_length_b 7.555(1)
_cell_length_c 9.834(1)
_cell_angle_alpha 90.
_cell_angle_beta 117.51(1)
_cell_angle_gamma 90.
_cell_volume 1200.02
_cell_formula_units_Z 20
_symmetry_space_group_name_H-M 'C 1 2/m 1'
_symmetry_Int_Tables_number 12
_refine_ls_R_factor_all 0.03
loop_
_symmetry_equiv_pos_site_id
_symmetry_equiv_pos_as_xyz
1 '-x, y, -z'
2 '-x, -y, -z'
3 'x, -y, z'
4 'x, y, z'
5 '-x+1/2, y+1/2, -z'
6 '-x+1/2, -y+1/2, -z'
7 'x+1/2, -y+1/2, z'
8 'x+1/2, y+1/2, z'
loop_
_atom_type_symbol
_atom_type_oxidation_number
K1+ 1
Mo5+ 5.7
O2- -2
loop_
_atom_site_label
_atom_site_type_symbol
_atom_site_symmetry_multiplicity
_atom_site_Wyckoff_symbol
_atom_site_fract_x
_atom_site_fract_y
_atom_site_fract_z
_atom_site_B_iso_or_equiv
_atom_site_occupancy
_atom_site_attached_hydrogens
K1 K1+ 2 d 0.5 0 0.5 . 1. 0
K2 K1+ 4 i 0.31174(7) 0.5 0.28116(12) . 1. 0
Mo1 Mo5+ 4 i 0.22619(2) 0 0.17416(4) . 1. 0
Mo2 Mo5+ 8 j 0.07989(1) 0.25503(2) 0.95754(2) . 1. 0
Mo3 Mo5+ 8 j 0.86165(1) 0.24987(3) 0.65362(2) . 1. 0
O1 O2- 4 f 0.75 0.25 0.5 . 1. 0
O2 O2- 4 i 0.2507(2) 0 0.0260(4) . 1. 0
O3 O2- 4 i 0.3191(2) 0 0.3356(4) . 1. 0
O4 O2- 4 i 0.0806(2) 0.5 -.0106(4) . 1. 0
O5 O2- 4 i 0.0893(2) 0 -.0066(4) . 1. 0
O6 O2- 4 i 0.8444(2) 0 0.6880(4) . 1. 0
O7 O2- 4 i 0.8592(2) 0.5 0.6698(4) . 1. 0
O8 O2- 8 j 0.1022(2) 0.2544(4) 0.8086(2) . 1. 0
O9 O2- 8 j 0.1858(1) 0.2436(3) 0.1610(2) . 1. 0
O10 O2- 8 j -.0877(2) 0.2192(3) 0.5482(2) . 1. 0
O11 O2- 8 j -.0375(1) 0.2462(3) 0.8536(2) . 1. 0
loop_
_atom_site_aniso_label
_atom_site_aniso_type_symbol
_atom_site_aniso_beta_11
_atom_site_aniso_beta_22
_atom_site_aniso_beta_33
_atom_site_aniso_beta_12
_atom_site_aniso_beta_13
_atom_site_aniso_beta_23
K1 K1+ 0.00196(7) 0.0052(2) 0.0132(4) 0 0.00390(14) 0
K2 K1+ 0.00116(3) 0.0044(1) 0.00280(8) 0 0.00064(4) 0
Mo1 Mo5+ 0.000258(6) 0.00113(3) 0.001212(24) 0 0.000176(10) 0
Mo2 Mo5+ 0.000269(4) 0.00078(2) 0.000884(16) -.000011(8) 0.000104(12)
0.000038(14)
Mo3 Mo5+ 0.000331(5) 0.00074(2) 0.000816(16) -.000031(8) -.000078(6)
0.000064(14)
O1 O2- 0.00044(7) 0.0019(3) 0.00228(24) 0.0001(1) -.00026(10) -.0004(2)
O2 O2- 0.00076(8) 0.0045(4) 0.00208(28) 0 0.00076(12) 0
O3 O2- 0.00048(7) 0.0032(4) 0.00200(12) 0 0.00006(12) 0
O4 O2- 0.00055(7) 0.0005(3) 0.00268(28) 0 0.00032(12) 0
O5 O2- 0.00058(7) 0.0006(3) 0.00184(24) 0 0.00026(10) 0
O6 O2- 0.00050(7) 0.0008(3) 0.00156(24) 0 0.0003(1) 0
O7 O2- 0.00088(8) 0.0007(3) 0.00208(28) 0 0.00018(12) 0
O8 O2- 0.00101(6) 0.0034(3) 0.00228(20) -.0001(1) 0.00102(10) 0.0000(1)
O9 O2- 0.00037(4) 0.0011(2) 0.00140(16) -.00002(8) 0.00008(6) 0.00002(14)
O10 O2- 0.00082(6) 0.0034(3) 0.0024(2) 0.0001(1) 0.00084(8) 0.00008(18)
O11 O2- 0.00031(4) 0.0017(2) 0.00032(4) -.00006(8) 0.00008(6) -.00008(14)
#End of TTdata_73509-ICSD