
#(C) 2016 by FIZ Karlsruhe - Leibniz Institute for Information Infrastructure.  All rights reserved.
data_95582-ICSD
_database_code_ICSD 95582
_audit_creation_date 2003-10-01
_chemical_name_systematic 'Lanthanum strontium nickel oxide (1.667/0.333/1/4)'
_chemical_formula_structural '(La1.667 Sr0.333) (Ni O4)'
_chemical_formula_sum 'La1.667 Ni1 O4 Sr0.333'
_chemical_name_structure_type K2MgF4
_exptl_crystal_density_diffrn 6.85
_cell_measurement_temperature 300.
_publ_section_title

;
Temperature evolution of the crystal structure of La2-x Srx Ni O4 (x = 1/4 and
1/3) as revealed through neutron powder diffraction
;
loop_
_citation_id
_citation_journal_full
_citation_year
_citation_journal_volume
_citation_page_first
_citation_page_last
_citation_journal_id_ASTM
primary 'Physical Review, Serie 3. B - Condensed Matter (18,1978-)' 2002 65
1741131 1741138 PRBMDO
loop_
_publ_author_name
'Wu, G.-Q.'
'Neumeier, J.J.'
'Ling, C.-D.'
'Argyriou, D.N.'
_cell_length_a 3.822647(26)
_cell_length_b 3.822647(26)
_cell_length_c 12.72239(14)
_cell_angle_alpha 90
_cell_angle_beta 90
_cell_angle_gamma 90
_cell_volume 185.91
_cell_formula_units_Z 2
_symmetry_space_group_name_H-M 'I 4/m m m'
_symmetry_Int_Tables_number 139
_refine_ls_R_factor_all 0.0489
loop_
_symmetry_equiv_pos_site_id
_symmetry_equiv_pos_as_xyz
1 'y, x, -z'
2 '-y, -x, -z'
3 '-y, x, -z'
4 'y, -x, -z'
5 '-x, y, -z'
6 'x, -y, -z'
7 'x, y, -z'
8 '-x, -y, -z'
9 '-y, -x, z'
10 'y, x, z'
11 'y, -x, z'
12 '-y, x, z'
13 'x, -y, z'
14 '-x, y, z'
15 '-x, -y, z'
16 'x, y, z'
17 'y+1/2, x+1/2, -z+1/2'
18 '-y+1/2, -x+1/2, -z+1/2'
19 '-y+1/2, x+1/2, -z+1/2'
20 'y+1/2, -x+1/2, -z+1/2'
21 '-x+1/2, y+1/2, -z+1/2'
22 'x+1/2, -y+1/2, -z+1/2'
23 'x+1/2, y+1/2, -z+1/2'
24 '-x+1/2, -y+1/2, -z+1/2'
25 '-y+1/2, -x+1/2, z+1/2'
26 'y+1/2, x+1/2, z+1/2'
27 'y+1/2, -x+1/2, z+1/2'
28 '-y+1/2, x+1/2, z+1/2'
29 'x+1/2, -y+1/2, z+1/2'
30 '-x+1/2, y+1/2, z+1/2'
31 '-x+1/2, -y+1/2, z+1/2'
32 'x+1/2, y+1/2, z+1/2'
loop_
_atom_type_symbol
_atom_type_oxidation_number
La3+ 3
Sr2+ 2
Ni2+ 2.33
O2- -2
loop_
_atom_site_label
_atom_site_type_symbol
_atom_site_symmetry_multiplicity
_atom_site_Wyckoff_symbol
_atom_site_fract_x
_atom_site_fract_y
_atom_site_fract_z
_atom_site_B_iso_or_equiv
_atom_site_occupancy
_atom_site_attached_hydrogens
La1 La3+ 4 e 0 0 0.36180(10) 0.00663(17) 0.833 0
Sr1 Sr2+ 4 e 0 0 0.36180(10) 0.00663(17) 0.167 0
Ni1 Ni2+ 2 a 0 0 0 0.00525(20) 1. 0
O1 O2- 4 e 0 0 0.17372(14) . 1. 0
O2 O2- 4 c 0.5 0 0 . 1. 0
loop_
_atom_site_aniso_label
_atom_site_aniso_type_symbol
_atom_site_aniso_U_11
_atom_site_aniso_U_22
_atom_site_aniso_U_33
_atom_site_aniso_U_12
_atom_site_aniso_U_13
_atom_site_aniso_U_23
O1 O2- 0.0162(4) 0.0162(4) 0.0093(7) 0. 0. 0.
O2 O2- 0.0046(5) 0.0094(6) 0.0136(7) 0. 0. 0.
#End of TTdata_95582-ICSD