
#(C) 2016 by FIZ Karlsruhe - Leibniz Institute for Information Infrastructure.  All rights reserved.
data_56519-ICSD
_database_code_ICSD 56519
_audit_creation_date 2003-04-01
_chemical_name_systematic 'Lanthanum calcium manganese oxide (0.33/0.67/1/3)'
_chemical_formula_structural '(La0.33 Ca0.67) Mn O3'
_chemical_formula_sum 'Ca0.67 La0.33 Mn1 O3'
_chemical_name_structure_type Perovskite-GdFeO3
_exptl_crystal_density_diffrn 5.32
_cell_measurement_temperature 300.
_publ_section_title

;
Structural, thermal, transport, and magnetic properties of the charge-ordered
La1/3 Ca2/3 Mn O3 oxide
;
loop_
_citation_id
_citation_journal_full
_citation_year
_citation_journal_volume
_citation_page_first
_citation_page_last
_citation_journal_id_ASTM
primary 'Physical Review, Serie 3. B - Condensed Matter (18,1978-)' 1999 59 1277
1284 PRBMDO
loop_
_publ_author_name
'Fernandez Diaz, M.T.'
'Martinez, J.L.'
'Alonso, J.M.'
'Herroro, E.'
_cell_length_a 5.3854(1)
_cell_length_b 5.3805(1)
_cell_length_c 7.56424(9)
_cell_angle_alpha 90.
_cell_angle_beta 90.
_cell_angle_gamma 90.
_cell_volume 219.18
_cell_formula_units_Z 4
_symmetry_space_group_name_H-M 'P b n m'
_symmetry_Int_Tables_number 62
_refine_ls_R_factor_all 0.0349
loop_
_symmetry_equiv_pos_site_id
_symmetry_equiv_pos_as_xyz
1 '-x+1/2, y+1/2, z'
2 'x, y, -z+1/2'
3 'x+1/2, -y+1/2, z+1/2'
4 '-x, -y, -z'
5 'x+1/2, -y+1/2, -z'
6 '-x, -y, z+1/2'
7 '-x+1/2, y+1/2, -z+1/2'
8 'x, y, z'
loop_
_atom_type_symbol
_atom_type_oxidation_number
Mn3+ 3.67
La3+ 3
Ca2+ 2
O2- -2
loop_
_atom_site_label
_atom_site_type_symbol
_atom_site_symmetry_multiplicity
_atom_site_Wyckoff_symbol
_atom_site_fract_x
_atom_site_fract_y
_atom_site_fract_z
_atom_site_B_iso_or_equiv
_atom_site_occupancy
_atom_site_attached_hydrogens
Mn1 Mn3+ 4 b 0.5 0 0 0.31(2) 1. 0
La1 La3+ 4 c 0.0055(4) 0.0213(3) 0.25 0.80(2) 0.333 0
Ca1 Ca2+ 4 c 0.0055(4) 0.0213(3) 0.25 0.80(2) 0.667 0
O1 O2- 8 d 0.2795(3) 0.2782(3) 0.0313(1) . 1. 0
O2 O2- 4 c -.0594(3) 0.4924(5) 0.25 . 1. 0
loop_
_atom_site_aniso_label
_atom_site_aniso_type_symbol
_atom_site_aniso_U_11
_atom_site_aniso_U_22
_atom_site_aniso_U_33
_atom_site_aniso_U_12
_atom_site_aniso_U_13
_atom_site_aniso_U_23
O1 O2- 0.0070(2) 0.0071(2) 0.00331(7) 0.0024(1) -.0001(4) 0.0006(4)
O2 O2- 0.0085(2) 0.0096(3) 0.00082(9) 0.0007(5) 0 0
#End of TTdata_56519-ICSD