
#(C) 2016 by FIZ Karlsruhe - Leibniz Institute for Information Infrastructure.  All rights reserved.
data_170765-ICSD
_database_code_ICSD 170765
_audit_creation_date 2006-04-01
_chemical_name_systematic 'Dilanthanum ruthenium pentoxide'
_chemical_formula_structural 'La2 Ru O5'
_chemical_formula_sum 'La2 O5 Ru1'
_chemical_name_structure_type La2RuO5
_exptl_crystal_density_diffrn 7.28
_publ_section_title
'High-temperature and low-temperature La2 Ru O5 by powder neutron diffraction'
loop_
_citation_id
_citation_journal_full
_citation_year
_citation_journal_volume
_citation_page_first
_citation_page_last
_citation_journal_id_ASTM
primary 'Acta Crystallographica, Section C: Crystal Structure Communications'
2005 61 i96 i98 ACSCEE
loop_
_publ_author_name
'Ebbinghaus, S.G.'
_cell_length_a 9.1850(4)
_cell_length_b 5.8294(2)
_cell_length_c 7.9552(3)
_cell_angle_alpha 90
_cell_angle_beta 100.79(2)
_cell_angle_gamma 90
_cell_volume 418.41
_cell_formula_units_Z 4
_symmetry_space_group_name_H-M 'P 1 21/c 1'
_symmetry_Int_Tables_number 14
_refine_ls_R_factor_all 0.0258
loop_
_symmetry_equiv_pos_site_id
_symmetry_equiv_pos_as_xyz
1 'x, -y+1/2, z+1/2'
2 '-x, -y, -z'
3 '-x, y+1/2, -z+1/2'
4 'x, y, z'
loop_
_atom_type_symbol
_atom_type_oxidation_number
La3+ 3
Ru4+ 4
O2- -2
loop_
_atom_site_label
_atom_site_type_symbol
_atom_site_symmetry_multiplicity
_atom_site_Wyckoff_symbol
_atom_site_fract_x
_atom_site_fract_y
_atom_site_fract_z
_atom_site_B_iso_or_equiv
_atom_site_occupancy
_atom_site_attached_hydrogens
La1 La3+ 4 e 0.1709(3) 0.2512(7) 0.5383(4) 0.0048(5) 1. 0
La2 La3+ 4 e 0.4466(3) 0.7638(8) 0.1197(3) 0.0056(6) 1. 0
Ru1 Ru4+ 4 e 0.1497(4) 0.7522(11) 0.2878(6) 0.0049(5) 1. 0
O1 O2- 4 e 0.2767(5) 0.4881(7) 0.2803(6) 0.0096(3) 1. 0
O2 O2- 4 e 0.3114(5) -0.0349(9) 0.3713(6) 0.0096(3) 1. 0
O3 O2- 4 e 0.0225(5) 0.0433(10) 0.2925(8) 0.0096(3) 1. 0
O4 O2- 4 e -0.1482(6) 0.3324(7) 0.4632(8) 0.0096(3) 1. 0
O5 O2- 4 e 0.4225(6) 0.3365(8) 0.6024(7) 0.0096(3) 1. 0
#End of TTdata_170765-ICSD