
#(C) 2016 by FIZ Karlsruhe - Leibniz Institute for Information Infrastructure.  All rights reserved.
data_75198-ICSD
_database_code_ICSD 75198
_audit_creation_date 1995-10-17
_audit_update_record 2006-04-01
_chemical_name_systematic 'Niobium(IV) oxide - HT'
_chemical_formula_structural 'Nb O2'
_chemical_formula_sum 'Nb1 O2'
_chemical_name_structure_type Rutile-TiO2
_exptl_crystal_density_diffrn 5.83
_cell_measurement_temperature 1273.
_publ_section_title

;
A powder neutron diffraction study of semiconducting and metallic niobium
dioxide
;
loop_
_citation_id
_citation_journal_full
_citation_year
_citation_journal_volume
_citation_page_first
_citation_page_last
_citation_journal_id_ASTM
primary 'Journal of Solid State Chemistry' 1994 113 9 14 JSSCBI
loop_
_publ_author_name
'Bolzan, A.A.'
'Fong, C.'
'Kennedy, B.J.'
'Howard, C.J.'
_cell_length_a 4.8463(1)
_cell_length_b 4.8463(1)
_cell_length_c 3.0315(1)
_cell_angle_alpha 90.
_cell_angle_beta 90.
_cell_angle_gamma 90.
_cell_volume 71.2
_cell_formula_units_Z 2
_symmetry_space_group_name_H-M 'P 42/m n m'
_symmetry_Int_Tables_number 136
_refine_ls_R_factor_all 0.043
loop_
_symmetry_equiv_pos_site_id
_symmetry_equiv_pos_as_xyz
1 '-y+1/2, x+1/2, -z+1/2'
2 'y+1/2, -x+1/2, -z+1/2'
3 'y, x, -z'
4 '-y, -x, -z'
5 'y+1/2, -x+1/2, z+1/2'
6 '-y+1/2, x+1/2, z+1/2'
7 '-y, -x, z'
8 'y, x, z'
9 'x+1/2, -y+1/2, -z+1/2'
10 '-x+1/2, y+1/2, -z+1/2'
11 'x, y, -z'
12 '-x, -y, -z'
13 '-x+1/2, y+1/2, z+1/2'
14 'x+1/2, -y+1/2, z+1/2'
15 '-x, -y, z'
16 'x, y, z'
loop_
_atom_type_symbol
_atom_type_oxidation_number
Nb4+ 4
O2- -2
loop_
_atom_site_label
_atom_site_type_symbol
_atom_site_symmetry_multiplicity
_atom_site_Wyckoff_symbol
_atom_site_fract_x
_atom_site_fract_y
_atom_site_fract_z
_atom_site_B_iso_or_equiv
_atom_site_occupancy
_atom_site_attached_hydrogens
Nb1 Nb4+ 2 a 0 0 0 . 1. 0
O1 O2- 4 f 0.2924(2) 0.2924(2) 0 . 1. 0
loop_
_atom_site_aniso_label
_atom_site_aniso_type_symbol
_atom_site_aniso_U_11
_atom_site_aniso_U_22
_atom_site_aniso_U_33
_atom_site_aniso_U_12
_atom_site_aniso_U_13
_atom_site_aniso_U_23
Nb1 Nb4+ 0.0221(5) 0.0221(5) 0.034(1) 0.0008(6) 0 0
O1 O2- 0.0309(6) 0.0309(6) 0.0266(8) -0.0097(5) 0 0
#End of TTdata_75198-ICSD