
#(C) 2018 by FIZ Karlsruhe - Leibniz Institute for Information Infrastructure.  All rights reserved.
data_164822-ICSD
_database_code_ICSD 164822
_audit_creation_date 2010-02-01
_chemical_name_systematic 'Neodymium cobaltate'
_chemical_formula_structural 'Nd (Co O3)'
_chemical_formula_sum 'Co1 Nd1 O3'
_chemical_name_structure_type Perovskite-GdFeO3
_exptl_crystal_density_diffrn 7.75
_cell_measurement_temperature 300.
_publ_section_title
'Neutron diffraction and heat capacity studies of Pr Co O3 and Nd Co O3'
loop_
_citation_id
_citation_journal_full
_citation_year
_citation_journal_volume
_citation_page_first
_citation_page_last
_citation_journal_id_ASTM
primary 'Physical Review, Serie 3. B - Condensed Matter (18,1978-)' 2009 79
134103-1 134103-7 PRBMDO
loop_
_publ_author_name
'Knizek, K.'
'Hejtmanek, J.'
'Jirak, Z.'
'Tomes, P.'
'Henry, P.'
'Andre, G.'
_cell_length_a 5.3438(6)
_cell_length_b 5.3345(5)
_cell_length_c 7.5478(9)
_cell_angle_alpha 90.
_cell_angle_beta 90.
_cell_angle_gamma 90.
_cell_volume 215.16
_cell_formula_units_Z 4
_symmetry_space_group_name_H-M 'P b n m'
_symmetry_Int_Tables_number 62
loop_
_symmetry_equiv_pos_site_id
_symmetry_equiv_pos_as_xyz
1 '-x+1/2, y+1/2, z'
2 'x, y, -z+1/2'
3 'x+1/2, -y+1/2, z+1/2'
4 '-x, -y, -z'
5 'x+1/2, -y+1/2, -z'
6 '-x, -y, z+1/2'
7 '-x+1/2, y+1/2, -z+1/2'
8 'x, y, z'
loop_
_atom_type_symbol
_atom_type_oxidation_number
Nd3+ 3
Co3+ 3
O2- -2
loop_
_atom_site_label
_atom_site_type_symbol
_atom_site_symmetry_multiplicity
_atom_site_Wyckoff_symbol
_atom_site_fract_x
_atom_site_fract_y
_atom_site_fract_z
_atom_site_B_iso_or_equiv
_atom_site_occupancy
_atom_site_attached_hydrogens
Nd1 Nd3+ 4 c 0.9924(8) 0.0352(3) 0.25 0.32(5) 1. 0
Co1 Co3+ 4 b 0.5 0 0 0.22(9) 1. 0
O1 O2- 4 c 0.0687(8) 0.4836(5) 0.25 0.43(7) 1. 0
O2 O2- 8 d -0.2923(7) 0.2932(6) 0.0293(4) 0.43(7) 1. 0
#End of TTdata_164822-ICSD