
#(C) 2016 by FIZ Karlsruhe - Leibniz Institute for Information Infrastructure.  All rights reserved.
data_67720-ICSD
_database_code_ICSD 67720
_audit_creation_date 1994-01-19
_audit_update_record 2006-04-01
_chemical_name_systematic 'Praseodymium niccolate(III)'
_chemical_formula_structural 'Pr (Ni O3)'
_chemical_formula_sum 'Ni1 O3 Pr1'
_chemical_name_structure_type Perovskite-GdFeO3
_exptl_crystal_density_diffrn 7.42
_cell_measurement_temperature 145.
_publ_section_title

;
Neutron-diffraction study of R Ni O3 (R= La, Pr, Nd, Sm): Electronically
induced structural changes across the metal-insulator transition
;
loop_
_citation_id
_citation_journal_full
_citation_year
_citation_journal_volume
_citation_page_first
_citation_page_last
_citation_journal_id_ASTM
primary 'Physical Review, Serie 3. B - Condensed Matter (18,1978-)' 1992 46 4414
4425 PRBMDO
loop_
_publ_author_name
'Garcia Munoz, J.L.'
'Rodriguez Carvajal, J.'
'Lacorre, P.'
'Torrance, J.B.'
_cell_length_a 5.4115(1)
_cell_length_b 5.3763(1)
_cell_length_c 7.6163(1)
_cell_angle_alpha 90.
_cell_angle_beta 90.
_cell_angle_gamma 90.
_cell_volume 221.59
_cell_formula_units_Z 4
_symmetry_space_group_name_H-M 'P b n m'
_symmetry_Int_Tables_number 62
_refine_ls_R_factor_all 0.037
loop_
_symmetry_equiv_pos_site_id
_symmetry_equiv_pos_as_xyz
1 '-x+1/2, y+1/2, z'
2 'x, y, -z+1/2'
3 'x+1/2, -y+1/2, z+1/2'
4 '-x, -y, -z'
5 'x+1/2, -y+1/2, -z'
6 '-x, -y, z+1/2'
7 '-x+1/2, y+1/2, -z+1/2'
8 'x, y, z'
loop_
_atom_type_symbol
_atom_type_oxidation_number
Pr3+ 3
Ni3+ 3
O2- -2
loop_
_atom_site_label
_atom_site_type_symbol
_atom_site_symmetry_multiplicity
_atom_site_Wyckoff_symbol
_atom_site_fract_x
_atom_site_fract_y
_atom_site_fract_z
_atom_site_B_iso_or_equiv
_atom_site_occupancy
_atom_site_attached_hydrogens
Pr1 Pr3+ 4 c 0.9945(6) 0.0305(4) 0.25 0.52(3) 1. 0
Ni1 Ni3+ 4 b 0.5 0 0 0.43(1) 1. 0
O1 O2- 4 c 0.0681(3) 0.4935(4) 0.25 0.60(3) 1. 0
O2 O2- 8 d 0.7190(2) 0.2814(3) 0.0356(2) 0.72(2) 1. 0
#End of TTdata_67720-ICSD