
#(C) 2016 by FIZ Karlsruhe - Leibniz Institute for Information Infrastructure.  All rights reserved.
data_96037-ICSD
_database_code_ICSD 96037
_audit_creation_date 2004-04-01
_chemical_name_systematic 'Samarium niccolate(III)'
_chemical_formula_structural 'Sm (Ni O3)'
_chemical_formula_sum 'Ni1 O3 Sm1'
_chemical_name_structure_type Perovskite-GdFeO3
_exptl_crystal_density_diffrn 7.79
_cell_measurement_temperature 418.
_publ_section_title

;
Isotopes in neutron diffraction - detailed structural analysis at the metal -
insulator transition in Sm Ni O3
;
loop_
_citation_id
_citation_journal_full
_citation_year
_citation_journal_volume
_citation_page_first
_citation_page_last
_citation_journal_id_ASTM
primary 'Materials Research Society Symposia Proceedings' 2001 658 GG3.31.1
GG3.31.7 MRSPDH
loop_
_publ_author_name
'Weller, M.T.'
'Henry, P.F.'
'Wilson, C.C.'
_cell_length_a 5.33740(9)
_cell_length_b 5.42470(9)
_cell_length_c 7.57402(12)
_cell_angle_alpha 90
_cell_angle_beta 90
_cell_angle_gamma 90
_cell_volume 219.3
_cell_formula_units_Z 4
_symmetry_space_group_name_H-M 'P b n m'
_symmetry_Int_Tables_number 62
loop_
_symmetry_equiv_pos_site_id
_symmetry_equiv_pos_as_xyz
1 '-x+1/2, y+1/2, z'
2 'x, y, -z+1/2'
3 'x+1/2, -y+1/2, z+1/2'
4 '-x, -y, -z'
5 'x+1/2, -y+1/2, -z'
6 '-x, -y, z+1/2'
7 '-x+1/2, y+1/2, -z+1/2'
8 'x, y, z'
loop_
_atom_type_symbol
_atom_type_oxidation_number
Sm3+ 3
Ni3+ 3
O2- -2
loop_
_atom_site_label
_atom_site_type_symbol
_atom_site_symmetry_multiplicity
_atom_site_Wyckoff_symbol
_atom_site_fract_x
_atom_site_fract_y
_atom_site_fract_z
_atom_site_B_iso_or_equiv
_atom_site_occupancy
_atom_site_attached_hydrogens
Sm1 Sm3+ 4 c 0.99122(33) 0.04943(15) 0.25 0.0090(5) 1. 0
Ni1 Ni3+ 4 b 0.5 0 0 0.0066(4) 1. 0
O1 O2- 4 c 0.07886(37) 0.48563(36) 0.25 0.0102(6) 1. 0
O2 O2- 8 d 0.70829(27) 0.29262(24) 0.04064(18) 0.0097(5) 1. 0
#End of TTdata_96037-ICSD