
#(C) 2016 by FIZ Karlsruhe - Leibniz Institute for Information Infrastructure.  All rights reserved.
data_52195-ICSD
_database_code_ICSD 52195
_audit_creation_date 2003-04-01
_audit_update_record 2008-02-01
_chemical_name_systematic 'Titanium sulfide'
_chemical_formula_structural 'Ti S2'
_chemical_formula_sum 'S2 Ti1'
_chemical_name_structure_type CdI2
_exptl_crystal_density_diffrn 3.25
_publ_section_title 'Structure refinement of stoichiometric Ti S2'
loop_
_citation_id
_citation_journal_full
_citation_year
_citation_journal_volume
_citation_page_first
_citation_page_last
_citation_journal_id_ASTM
primary 'Materials Research Bulletin' 1975 10 1379 1382 MRBUAC
loop_
_publ_author_name
'Chianelli, R.R.'
'Scanlon, J.C.'
'Thompson, A.H.'
_cell_length_a 3.4073(2)
_cell_length_b 3.4073
_cell_length_c 5.6953(2)
_cell_angle_alpha 90.
_cell_angle_beta 90.
_cell_angle_gamma 120.
_cell_volume 57.26
_cell_formula_units_Z 1
_symmetry_space_group_name_H-M 'P -3 m 1'
_symmetry_Int_Tables_number 164
_refine_ls_R_factor_all 0.047
loop_
_symmetry_equiv_pos_site_id
_symmetry_equiv_pos_as_xyz
1 'x-y, -y, -z'
2 '-x, -x+y, -z'
3 'y, x, -z'
4 'x-y, x, -z'
5 'y, -x+y, -z'
6 '-x, -y, -z'
7 '-x+y, y, z'
8 'x, x-y, z'
9 '-y, -x, z'
10 '-x+y, -x, z'
11 '-y, x-y, z'
12 'x, y, z'
loop_
_atom_type_symbol
_atom_type_oxidation_number
Ti4+ 4
S2- -2
loop_
_atom_site_label
_atom_site_type_symbol
_atom_site_symmetry_multiplicity
_atom_site_Wyckoff_symbol
_atom_site_fract_x
_atom_site_fract_y
_atom_site_fract_z
_atom_site_B_iso_or_equiv
_atom_site_occupancy
_atom_site_attached_hydrogens
Ti1 Ti4+ 1 a 0 0 0 . 1. 0
S1 S2- 2 d 0.3333 0.6667 0.2501(4) . 1. 0
loop_
_atom_site_aniso_label
_atom_site_aniso_type_symbol
_atom_site_aniso_U_11
_atom_site_aniso_U_22
_atom_site_aniso_U_33
_atom_site_aniso_U_12
_atom_site_aniso_U_13
_atom_site_aniso_U_23
Ti1 Ti4+ 0.0096(2) 0.0096 0.0225(2) 0.0048 0 0
S1 S2- 0.0127(2) 0.0127 0.0203(2) 0.0064 0 0
#End of TTdata_52195-ICSD