
#(C) 2016 by FIZ Karlsruhe - Leibniz Institute for Information Infrastructure.  All rights reserved.
data_2775-ICSD
_database_code_ICSD 2775
_audit_creation_date 1980-01-01
_audit_update_record 2004-04-01
_chemical_name_systematic 'Vanadium oxide (4/7)'
_chemical_formula_structural 'V4 O7'
_chemical_formula_sum 'O7 V4'
_chemical_name_structure_type V4O7
_exptl_crystal_density_diffrn 4.85
_publ_section_title 'The crystal structure of V4 O7'
loop_
_citation_id
_citation_journal_full
_citation_year
_citation_journal_volume
_citation_page_first
_citation_page_last
_citation_journal_id_ASTM
primary 'Acta Crystallographica B (24,1968-38,1982)' 1972 28 1404 1410 ACBCAR
loop_
_publ_author_name
'Horiuchi, H.'
'Tokonami, M.'
'Morimoto, N.'
'Nagasawa, K.'
_cell_length_a 5.504
_cell_length_b 7.007
_cell_length_c 19.243
_cell_angle_alpha 41.3
_cell_angle_beta 72.5
_cell_angle_gamma 109.4
_cell_volume 216.08
_cell_formula_units_Z 2
_symmetry_space_group_name_H-M 'P -1'
_symmetry_Int_Tables_number 2
_refine_ls_R_factor_all 0.084
loop_
_symmetry_equiv_pos_site_id
_symmetry_equiv_pos_as_xyz
1 '-x, -y, -z'
2 'x, y, z'
loop_
_atom_type_symbol
_atom_type_oxidation_number
V3.5+ 3.5
O2- -2
loop_
_atom_site_label
_atom_site_type_symbol
_atom_site_symmetry_multiplicity
_atom_site_Wyckoff_symbol
_atom_site_fract_x
_atom_site_fract_y
_atom_site_fract_z
_atom_site_B_iso_or_equiv
_atom_site_occupancy
_atom_site_attached_hydrogens
V1 V3.5+ 2 i -.00698(97) 0.4482(11) 0.09478(40) 0.45 1. 0
V2 V3.5+ 2 i -.01739(95) -.0610(11) 0.10066(39) 0.34 1. 0
V3 V3.5+ 2 i -.01163(96) 0.4870(11) 0.36698(40) 0.43 1. 0
V4 V3.5+ 2 i -.03145(95) -.0363(11) 0.37327(40) 0.37 1. 0
O1 O2- 2 i 0.6973(40) 0.4174(46) 0.0498(16) 1.04 1. 0
O2 O2- 2 i 0.323(4) 0.5560(46) 0.1039(16) 0.98 1. 0
O3 O2- 2 i 0.6896(39) 0.4735(45) 0.1684(16) 0.78 1. 0
O4 O2- 2 i 0.3829(38) 0.6268(44) 0.2235(16) 0.71 1. 0
O5 O2- 2 i 0.6934(39) 0.4161(45) 0.3317(16) 1.01 1. 0
O6 O2- 2 i 0.3026(40) 0.5661(46) 0.3924(16) 1.05 1. 0
O7 O2- 2 i 0.6602(38) 0.4332(43) 0.4697(16) 0.67 1. 0
#End of TTdata_2775-ICSD