
#(C) 2016 by FIZ Karlsruhe - Leibniz Institute for Information Infrastructure.  All rights reserved.
data_6097-ICSD
_database_code_ICSD 6097
_audit_creation_date 1980-01-01
_audit_update_record 2006-04-01
_chemical_name_systematic 'Vanadium oxide (5/9)'
_chemical_formula_structural 'V5 O9'
_chemical_formula_sum 'O9 V5'
_chemical_name_structure_type Ti5O9
_exptl_crystal_density_diffrn 4.73
_cell_measurement_temperature 298.
_publ_section_title
'Structural aspects of the metal-insulator transition in V5 O9'
loop_
_citation_id
_citation_journal_full
_citation_year
_citation_journal_volume
_citation_page_first
_citation_page_last
_citation_journal_id_ASTM
primary 'Journal of Solid State Chemistry' 1974 11 301 313 JSSCBI
loop_
_publ_author_name
'Marezio, M.'
'Dernier, P.D.'
'McWhan, D.B.'
'Kachi, S.'
_cell_length_a 5.472(1)
_cell_length_b 7.003(1)
_cell_length_c 8.727(1)
_cell_angle_alpha 97.49
_cell_angle_beta 112.4
_cell_angle_gamma 109.01
_cell_volume 279.66
_cell_formula_units_Z 2
_symmetry_space_group_name_H-M 'P -1'
_symmetry_Int_Tables_number 2
_refine_ls_R_factor_all 0.034
loop_
_symmetry_equiv_pos_site_id
_symmetry_equiv_pos_as_xyz
1 '-x, -y, -z'
2 'x, y, z'
loop_
_atom_type_symbol
_atom_type_oxidation_number
V3+ 3.6
O2- -2
loop_
_atom_site_label
_atom_site_type_symbol
_atom_site_symmetry_multiplicity
_atom_site_Wyckoff_symbol
_atom_site_fract_x
_atom_site_fract_y
_atom_site_fract_z
_atom_site_B_iso_or_equiv
_atom_site_occupancy
_atom_site_attached_hydrogens
V1 V3+ 1 c 0 0.5 0 . 1. 0
V2 V3+ 1 a 0 0 0 . 1. 0
V3 V3+ 2 i 0.54953(9) 0.83654(7) 0.20924(6) . 1. 0
V4 V3+ 2 i 0.55815(9) 0.34500(7) 0.20808(6) . 1. 0
V5 V3+ 2 i 0.13748(9) 0.17333(7) 0.42045(6) . 1. 0
V6 V3+ 2 i 0.14709(9) 0.67629(7) 0.42466(6) . 1. 0
O1 O2- 2 i 0.6475(4) 0.8505(3) 0.0230(3) . 1. 0
O2 O2- 2 i 0.1647(4) 0.8064(3) 0.0791(3) . 1. 0
O3 O2- 2 i 0.3942(4) 0.5340(3) 0.1369(3) . 1. 0
O4 O2- 2 i 0.9170(4) 0.4892(3) 0.1994(3) . 1. 0
O5 O2- 2 i 0.2138(4) 0.1883(3) 0.2408(3) . 1. 0
O6 O2- 2 i 0.7283(3) 0.1503(3) 0.3222(3) . 1. 0
O7 O2- 2 i 0.9490(4) 0.8650(3) 0.3664(2) . 1. 0
O8 O2- 2 i 0.4815(4) 0.7995(3) 0.4184(3) . 1. 0
O9 O2- 2 i 0.7708(4) 0.5334(3) 0.4596(2) . 1. 0
loop_
_atom_site_aniso_label
_atom_site_aniso_type_symbol
_atom_site_aniso_beta_11
_atom_site_aniso_beta_22
_atom_site_aniso_beta_33
_atom_site_aniso_beta_12
_atom_site_aniso_beta_13
_atom_site_aniso_beta_23
V1 V3+ 0.0054(2) 0.0025(1) 0.0021(1) 0.0018(1) 0.0014(1) 0.0002(1)
V2 V3+ 0.0067(2) 0.0036(1) 0.0024(1) 0.0027(1) 0.0022(1) 0.0008(1)
V3 V3+ 0.0051(2) 0.0026(1) 0.0021(1) 0.0016(1) 0.0012(1) 0.0003(1)
V4 V3+ 0.0055(2) 0.0028(1) 0.0018(1) 0.0020(1) 0.0016(1) 0.0003(1)
V5 V3+ 0.0053(2) 0.0025(1) 0.0020(1) 0.0015(1) 0.0021(1) 0.0002(1)
V6 V3+ 0.0056(2) 0.0031(1) 0.0021(1) 0.0023(1) 0.0021(1) 0.0007(1)
O1 O2- 0.0058(6) 0.0029(4) 0.0022(2) 0.0009(4) 0.0020(3) 0.0002(2)
O2 O2- 0.0057(6) 0.0034(4) 0.0027(2) 0.0026(4) 0.0019(3) 0.0008(2)
O3 O2- 0.0057(6) 0.0030(3) 0.0024(2) 0.0020(4) 0.0014(3) 0.0005(2)
O4 O2- 0.0047(6) 0.0036(4) 0.0023(2) 0.0011(4) 0.0018(3) 0.0003(2)
O5 O2- 0.0068(7) 0.0038(4) 0.0019(2) 0.0016(4) 0.0012(3) 0.0003(2)
O6 O2- 0.0043(6) 0.0029(3) 0.0019(2) 0.0016(4) 0.0012(3) 0.0003(2)
O7 O2- 0.0053(6) 0.0021(3) 0.0021(2) 0.0016(4) 0.0016(3) 0.0002(2)
O8 O2- 0.0051(6) 0.0042(4) 0.0027(3) 0.0022(4) 0.0018(3) 0.0005(2)
O9 O2- 0.0055(6) 0.0027(3) 0.0016(2) 0.0013(4) 0.0015(3) 0.0006(2)
#End of TTdata_6097-ICSD