
#(C) 2016 by FIZ Karlsruhe - Leibniz Institute for Information Infrastructure.  All rights reserved.
data_15028-ICSD
_database_code_ICSD 15028
_audit_creation_date 1986-09-25
_audit_update_record 2012-02-01
_chemical_name_systematic 'Vanadium oxide (6/13)'
_chemical_formula_structural 'V6 O13'
_chemical_formula_sum 'O13 V6'
_chemical_name_structure_type V6O13
_exptl_crystal_density_diffrn 3.91
_publ_section_title 'A refinement of the crystal structure of V6 O13'
loop_
_citation_id
_citation_journal_full
_citation_year
_citation_journal_volume
_citation_page_first
_citation_page_last
_citation_journal_id_ASTM
primary 'Acta Chemica Scandinavica (1-27,1973-42,1988)' 1971 25 2675 2687 ACSAA4
loop_
_publ_author_name
'Wilhelmi, K.A.'
'Waltersson, K.'
'Kihlborg, L.'
_cell_length_a 11.922(2)
_cell_length_b 3.680(1)
_cell_length_c 10.138(2)
_cell_angle_alpha 90.
_cell_angle_beta 100.87(2)
_cell_angle_gamma 90.
_cell_volume 436.8
_cell_formula_units_Z 2
_symmetry_space_group_name_H-M 'C 1 2/m 1'
_symmetry_Int_Tables_number 12
_refine_ls_R_factor_all 0.03
loop_
_symmetry_equiv_pos_site_id
_symmetry_equiv_pos_as_xyz
1 '-x, y, -z'
2 '-x, -y, -z'
3 'x, -y, z'
4 'x, y, z'
5 '-x+1/2, y+1/2, -z'
6 '-x+1/2, -y+1/2, -z'
7 'x+1/2, -y+1/2, z'
8 'x+1/2, y+1/2, z'
loop_
_atom_type_symbol
_atom_type_oxidation_number
V4+ 4
V5+ 5
V4+ 4
O2- -2
loop_
_atom_site_label
_atom_site_type_symbol
_atom_site_symmetry_multiplicity
_atom_site_Wyckoff_symbol
_atom_site_fract_x
_atom_site_fract_y
_atom_site_fract_z
_atom_site_B_iso_or_equiv
_atom_site_occupancy
_atom_site_attached_hydrogens
V1 V4+ 4 i 0.35180(12) 0 -.00041(14) 0.53 1. 0
V2 V5+ 4 i 0.41262(9) 0 0.36310(11) 0.301 1. 0
V3 V4+ 4 i 0.71322(9) 0 0.36513(11) 0.276 1. 0
O1 O2- 4 i 0.17883(34) 0 0.0052(41) 0.62 1. 0
O2 O2- 4 i 0.88194(34) 0 0.38776(41) 0.52 1. 0
O3 O2- 4 i 0.24898(34) 0 0.40773(41) 0.47 1. 0
O4 O2- 2 b 0.5 0 0 0.91 1. 0
O5 O2- 4 i 0.38604(35) 0 0.19688(44) 0.72 1. 0
O6 O2- 4 i 0.67817(35) 0 0.20062(42) 0.64 1. 0
O7 O2- 4 i 0.56262(35) 0 0.40863(44) 0.63 1. 0
#End of TTdata_15028-ICSD