
#(C) 2016 by FIZ Karlsruhe - Leibniz Institute for Information Infrastructure.  All rights reserved.
data_424885-ICSD
_database_code_ICSD 424885
_audit_creation_date 2013-08-01
_chemical_name_systematic 'Vanadium oxide (8/15)'
_chemical_formula_structural 'V8 O15'
_chemical_formula_sum 'O15 V8'
_exptl_crystal_density_diffrn 4.71
_cell_measurement_temperature 100.
_publ_section_title

;
Crystal structures of the high temperature forms of V8 O15 and V9 O17 and
structural trends in the VnO2n-1 Magneli series
;
loop_
_citation_id
_citation_journal_full
_citation_year
_citation_journal_volume
_citation_page_first
_citation_page_last
_citation_journal_id_ASTM
primary 'Journal of Solid State Chemistry' 2013 198 10 17 JSSCBI
loop_
_publ_author_name
'Allred, J.M.'
'Cava, R.J.'
_cell_length_a 5.4243(16)
_cell_length_b 7.005(2)
_cell_length_c 13.113(5)
_cell_angle_alpha 100.135(5)
_cell_angle_beta 95.864(5)
_cell_angle_gamma 108.961(4)
_cell_volume 457.02
_cell_formula_units_Z 2
_symmetry_space_group_name_H-M 'P -1'
_symmetry_Int_Tables_number 2
_refine_ls_R_factor_all 0.0254
loop_
_symmetry_equiv_pos_site_id
_symmetry_equiv_pos_as_xyz
1 '-x, -y, -z'
2 'x, y, z'
loop_
_atom_type_symbol
_atom_type_oxidation_number
O2- -2
V3+ 3.75
loop_
_atom_site_label
_atom_site_type_symbol
_atom_site_symmetry_multiplicity
_atom_site_Wyckoff_symbol
_atom_site_fract_x
_atom_site_fract_y
_atom_site_fract_z
_atom_site_B_iso_or_equiv
_atom_site_occupancy
_atom_site_attached_hydrogens
O1 O2- 2 i 0.2606(3) 0.3641(2) 0.38984(10) 0.0047(2) 1 0
O2 O2- 2 i 0.5980(2) 0.5676(2) 0.25676(10) 0.0050(2) 1 0
O3 O2- 2 i 0.9080(3) 0.7622(2) 0.10799(10) 0.0051(2) 1 0
O4 O2- 2 i 0.1897(2) 0.9414(2) -0.02310(10) 0.0047(2) 1 0
O5 O2- 2 i 0.0755(3) 0.8431(2) 0.47601(10) 0.0047(2) 1 0
O6 O2- 2 i 0.7567(2) 0.2582(2) 0.21719(10) 0.0046(2) 1 0
O7 O2- 2 i 0.0848(2) 0.4466(2) 0.07987(10) 0.0043(2) 1 0
O8 O2- 2 i 0.5397(2) 0.7755(2) 0.44839(10) 0.0048(2) 1 0
O9 O2- 2 i 0.8739(3) 0.9771(2) 0.31395(10) 0.0051(2) 1 0
O10 O2- 2 i 0.2205(3) 0.1791(2) 0.18076(10) 0.0047(2) 1 0
O11 O2- 2 i 0.5653(3) 0.3518(2) 0.04843(10) 0.0051(2) 1 0
O12 O2- 2 i 0.7970(2) 0.4301(2) 0.42074(10) 0.0047(2) 1 0
O13 O2- 2 i 0.1412(3) 0.6412(2) 0.28816(10) 0.0050(2) 1 0
O14 O2- 2 i 0.4751(3) 0.8463(2) 0.15653(10) 0.0048(2) 1 0
O15 O2- 2 i 0.4155(3) 0.0484(2) 0.34456(10) 0.0047(2) 1 0
V1 V3+ 2 i 0.21864(6) 0.72427(5) 0.05278(2) 0.00368(7) 1 0
V2 V3+ 2 i 0.22819(6) 0.22385(5) 0.04461(2) 0.00367(7) 1 0
V3 V3+ 2 i 0.85915(6) 0.52360(5) 0.18200(2) 0.00388(7) 1 0
V4 V3+ 2 i 0.85629(6) 0.03123(5) 0.17826(2) 0.00375(7) 1 0
V5 V3+ 2 i 0.50304(6) 0.30694(5) 0.30644(2) 0.00378(7) 1 0
V6 V3+ 2 i 0.51183(6) 0.80640(5) 0.31469(2) 0.00427(7) 1 0
V7 V3+ 2 i 0.16404(6) 0.09964(5) 0.43177(3) 0.00402(7) 1 0
V8 V3+ 2 i 0.15977(7) 0.59963(5) 0.43793(3) 0.00419(7) 1 0
loop_
_atom_site_aniso_label
_atom_site_aniso_type_symbol
_atom_site_aniso_U_11
_atom_site_aniso_U_22
_atom_site_aniso_U_33
_atom_site_aniso_U_12
_atom_site_aniso_U_13
_atom_site_aniso_U_23
V1 V3+ 0.00351(14) 0.00342(15) 0.00376(14) 0.00110(12) -0.00007(10) 0.00055(11)
V2 V3+ 0.00328(14) 0.00338(15) 0.00417(14) 0.00126(12) 0.00025(10) 0.00041(11)
V3 V3+ 0.00480(15) 0.00377(16) 0.00353(14) 0.00203(13) 0.00098(11) 0.00081(12)
V4 V3+ 0.00399(15) 0.00338(16) 0.00399(14) 0.00155(12) 0.00058(11) 0.00066(12)
V5 V3+ 0.00399(15) 0.00326(16) 0.00422(15) 0.00148(13) 0.00077(11) 0.00070(12)
V6 V3+ 0.00447(15) 0.00378(16) 0.00470(15) 0.00177(13) 0.00083(11) 0.00064(12)
V7 V3+ 0.00421(15) 0.00353(15) 0.00456(14) 0.00154(12) 0.00118(11) 0.00088(11)
V8 V3+ 0.00425(15) 0.00386(15) 0.00438(14) 0.00181(12) 0.00014(11) 0.00030(11)
#End of TTdata_424885-ICSD