
#(C) 2016 by FIZ Karlsruhe - Leibniz Institute for Information Infrastructure.  All rights reserved.
data_63229-ICSD
_database_code_ICSD 63229
_audit_creation_date 1989-12-04
_audit_update_record 2002-04-01
_chemical_name_systematic 'Barium vanadium(IV) sulfide'
_chemical_formula_structural 'Ba V S3'
_chemical_formula_sum 'Ba1 S3 V1'
_chemical_name_structure_type BaVS3
_exptl_crystal_density_diffrn 4.35
_cell_measurement_temperature 100.
_publ_section_title

;
Powder neutron diffraction studies of the low-temperature phase transitions in
stoichiometric Ba V S3
;
loop_
_citation_id
_citation_journal_full
_citation_year
_citation_journal_volume
_citation_page_first
_citation_page_last
_citation_journal_id_ASTM
primary 'Journal of Physics C' 1986 19 6489 6503 JPSOAW
loop_
_publ_author_name
'Ghedira, M.'
'Anne, M.'
'Chenavas, J.'
'Marezio, M.'
'Sayetat, F.'
_cell_length_a 6.7572(1)
_cell_length_b 11.4866(2)
_cell_length_c 5.5994(1)
_cell_angle_alpha 90.
_cell_angle_beta 90.
_cell_angle_gamma 90.
_cell_volume 434.61
_cell_formula_units_Z 4
_symmetry_space_group_name_H-M 'C m c 21'
_symmetry_Int_Tables_number 36
_refine_ls_R_factor_all 0.088
loop_
_symmetry_equiv_pos_site_id
_symmetry_equiv_pos_as_xyz
1 'x, -y, z+1/2'
2 '-x, -y, z+1/2'
3 '-x, y, z'
4 'x, y, z'
5 'x+1/2, -y+1/2, z+1/2'
6 '-x+1/2, -y+1/2, z+1/2'
7 '-x+1/2, y+1/2, z'
8 'x+1/2, y+1/2, z'
loop_
_atom_type_symbol
_atom_type_oxidation_number
Ba2+ 2
V4+ 4
S2- -2
loop_
_atom_site_label
_atom_site_type_symbol
_atom_site_symmetry_multiplicity
_atom_site_Wyckoff_symbol
_atom_site_fract_x
_atom_site_fract_y
_atom_site_fract_z
_atom_site_B_iso_or_equiv
_atom_site_occupancy
_atom_site_attached_hydrogens
Ba1 Ba2+ 4 a 0 0.3364(2) 0.25 0.41(2) 1. 0
V1 V4+ 4 a 0 0.021(1) -.001(5) 0.41(2) 1. 0
S1 S2- 4 a 0 0.8302(3) 0.237(1) 0.41(2) 1. 0
S2 S2- 8 b 0.2442(4) 0.0834(3) 0.258(1) 0.41(2) 1. 0
#End of TTdata_63229-ICSD