
#(C) 2017 by FIZ Karlsruhe - Leibniz Institute for Information Infrastructure.  All rights reserved.
data_246001-ICSD
_database_code_ICSD 246001
_audit_creation_date 2009-02-01
_audit_update_record 2016-08-01
_chemical_name_systematic
'Calcium tricopper(II) tetrairon(III/IV) dodecaoxide - LT'
_chemical_formula_structural 'Ca Cu2.9 Fe4 O12'
_chemical_formula_sum 'Ca1 Cu2.9 Fe4 O12'
_exptl_crystal_density_diffrn 5.55
_cell_measurement_temperature 293.
_publ_section_title

;
A perovskite containing quadrivalent iron as a charge-disproportionated
ferrimagnet
;
loop_
_citation_id
_citation_journal_full
_citation_year
_citation_journal_volume
_citation_page_first
_citation_page_last
_citation_journal_id_ASTM
primary 'Angewandte Chemie. International Edition' 2008 47 7032 7035 ACIEF5
loop_
_publ_author_name
'Yamada, I.'
'Takata, K.'
'Hayashi, N.'
'Shinohara, S.'
'Azuma, M.'
'Mori, S.'
'Muranaka, S.'
'Shimakawa, Y.'
'Takano, M.'
_cell_length_a 7.26122(4)
_cell_length_b 7.26122(4)
_cell_length_c 7.26122(4)
_cell_angle_alpha 90.
_cell_angle_beta 90.
_cell_angle_gamma 90.
_cell_volume 382.85
_cell_formula_units_Z 2
_symmetry_space_group_name_H-M 'P n -3 S'
_symmetry_Int_Tables_number 201
_refine_ls_R_factor_all 0.0434
loop_
_symmetry_equiv_pos_site_id
_symmetry_equiv_pos_as_xyz
1 '-z+1/2, x+1/2, y+1/2'
2 'z+1/2, x+1/2, -y+1/2'
3 'z+1/2, -x+1/2, y+1/2'
4 '-z+1/2, -x+1/2, -y+1/2'
5 'y+1/2, -z+1/2, x+1/2'
6 '-y+1/2, z+1/2, x+1/2'
7 'y+1/2, z+1/2, -x+1/2'
8 '-y+1/2, -z+1/2, -x+1/2'
9 'x+1/2, y+1/2, -z+1/2'
10 'x+1/2, -y+1/2, z+1/2'
11 '-x+1/2, y+1/2, z+1/2'
12 '-x+1/2, -y+1/2, -z+1/2'
13 'z, -x, -y'
14 '-z, -x, y'
15 '-z, x, -y'
16 'z, x, y'
17 '-y, z, -x'
18 'y, -z, -x'
19 '-y, -z, x'
20 'y, z, x'
21 '-x, -y, z'
22 '-x, y, -z'
23 'x, -y, -z'
24 'x, y, z'
loop_
_atom_type_symbol
_atom_type_oxidation_number
Ca2+ 2
Cu2+ 2
Fe3+ 3
Fe5+ 5
O2- -2
loop_
_atom_site_label
_atom_site_type_symbol
_atom_site_symmetry_multiplicity
_atom_site_Wyckoff_symbol
_atom_site_fract_x
_atom_site_fract_y
_atom_site_fract_z
_atom_site_B_iso_or_equiv
_atom_site_occupancy
_atom_site_attached_hydrogens
Ca1 Ca2+ 2 a 0.5 0.5 0.5 0.0115(5) 1. 0
Cu1 Cu2+ 6 d 0.5 0 0 0.00560(14) 0.968 0
Fe1 Fe3+ 6 d 0.5 0 0 0.00560(14) 0.032 0
Fe2 Fe3+ 4 b 0.25 0.25 0.25 0.00160(12) 1. 0
Fe3 Fe5+ 4 c 0.75 0.75 0.75 0.00160(12) 1. 0
O1 O2- 24 h 0.5056(5) 0.67955(16) 0.80732(14) 0.0091(3) 1. 0
#End of TTdata_246001-ICSD