
#(C) 2016 by FIZ Karlsruhe - Leibniz Institute for Information Infrastructure.  All rights reserved.
data_92336-ICSD
_database_code_ICSD 92336
_audit_creation_date 2002-10-01
_chemical_name_systematic 'Calcium ferrate(IV)'
_chemical_formula_structural 'Ca (Fe O3)'
_chemical_formula_sum 'Ca1 Fe1 O3'
_chemical_name_structure_type Perovskite-Ba2LaRuO6
_exptl_crystal_density_diffrn 4.47
_cell_measurement_temperature 130.
_publ_section_title

;
Metal-semiconductor transition, charge disproportionation, and low-temperature
structure of Ca1-x Srx Fe O3 synthesized under high-oxygen pressure
;
loop_
_citation_id
_citation_journal_full
_citation_year
_citation_journal_volume
_citation_page_first
_citation_page_last
_citation_journal_id_ASTM
primary 'Solid State Sciences' 2000 2 673 687 SSSCFJ
loop_
_publ_author_name
'Takeda, T.'
'Kanno, R.'
'Kawamoto, Y.'
'Takano, M.'
'Kawasaki, S.'
'Kamiyama, T.'
'Izumi, F.'
_cell_length_a 5.31301(5)
_cell_length_b 5.34719(5)
_cell_length_c 7.52351(6)
_cell_angle_alpha 90.
_cell_angle_beta 90.063(2)
_cell_angle_gamma 90.
_cell_volume 213.74
_cell_formula_units_Z 4
_symmetry_space_group_name_H-M 'P 1 21/n 1'
_symmetry_Int_Tables_number 14
_refine_ls_R_factor_all 0.009
loop_
_symmetry_equiv_pos_site_id
_symmetry_equiv_pos_as_xyz
1 '-x+1/2, y+1/2, -z+1/2'
2 '-x, -y, -z'
3 'x+1/2, -y+1/2, z+1/2'
4 'x, y, z'
loop_
_atom_type_symbol
_atom_type_oxidation_number
Ca2+ 2
Fe4+ 4
O2- -2
loop_
_atom_site_label
_atom_site_type_symbol
_atom_site_symmetry_multiplicity
_atom_site_Wyckoff_symbol
_atom_site_fract_x
_atom_site_fract_y
_atom_site_fract_z
_atom_site_B_iso_or_equiv
_atom_site_occupancy
_atom_site_attached_hydrogens
Ca1 Ca2+ 4 e -.0066(10) 0.0370(4) 0.751(3) 0.57(4) 1. 0
Fe1 Fe4+ 2 d 0.5 0 0 0.181(11) 1. 0
Fe2 Fe4+ 2 c 0 0.5 0 0.181(1) 1. 0
O1 O2- 4 e 0.7158(15) 0.2903(19) 0.9644(13) 0.31(13) 1. 0
O2 O2- 4 e 0.7099(15) 0.285(2) 0.5337(12) 0.47(14) 1. 0
O3 O2- 4 e 0.0670(6) 0.4889(5) 0.7525(16) 0.42(4) 1. 0
#End of TTdata_92336-ICSD