
#(C) 2016 by FIZ Karlsruhe - Leibniz Institute for Information Infrastructure.  All rights reserved.
data_252388-ICSD
_database_code_ICSD 252388
_audit_creation_date 2016-08-01
_chemical_name_systematic 'Calcium dodecaoxoheptamanganate(III/IV)'
_chemical_formula_structural 'Ca Mn7 O12'
_chemical_formula_sum 'Ca1 Mn7 O12'
_chemical_name_structure_type CaMn7O12
_exptl_crystal_density_diffrn 5.11
_cell_measurement_temperature 295.
_publ_section_title

;
Low-temperature structural modulations in CdMn7O12, CaMn7O12, SrMn7O12, and
PbMn7O12 perovskites studied by synchrotron X-ray powder diffraction and
Moessbauer spectroscopy
;
loop_
_citation_id
_citation_journal_full
_citation_year
_citation_journal_volume
_citation_page_first
_citation_page_last
_citation_journal_id_ASTM
primary 'Journal of Physical Chemistry C' 2016 120 8278 8288 JPCCCK
loop_
_publ_author_name
'Belik, Alexei A.'
'Glazkova, Yana S.'
'Katsuya, Yoshio'
'Tanaka, Masahiko'
'Sobolev, Alexey V.'
'Presniakov, Igor A.'
_cell_length_a 10.45891(2)
_cell_length_b 10.45891(2)
_cell_length_c 6.34262(1)
_cell_angle_alpha 90.
_cell_angle_beta 90.
_cell_angle_gamma 120.
_cell_volume 600.86
_cell_formula_units_Z 3
_symmetry_space_group_name_H-M 'R -3 H'
_symmetry_Int_Tables_number 148
_refine_ls_R_factor_all 0.0142
loop_
_symmetry_equiv_pos_site_id
_symmetry_equiv_pos_as_xyz
1 'x-y, x, -z'
2 'y, -x+y, -z'
3 '-x, -y, -z'
4 '-x+y, -x, z'
5 '-y, x-y, z'
6 'x, y, z'
7 'x-y+2/3, x+1/3, -z+1/3'
8 'y+2/3, -x+y+1/3, -z+1/3'
9 '-x+2/3, -y+1/3, -z+1/3'
10 '-x+y+2/3, -x+1/3, z+1/3'
11 '-y+2/3, x-y+1/3, z+1/3'
12 'x+2/3, y+1/3, z+1/3'
13 'x-y+1/3, x+2/3, -z+2/3'
14 'y+1/3, -x+y+2/3, -z+2/3'
15 '-x+1/3, -y+2/3, -z+2/3'
16 '-x+y+1/3, -x+2/3, z+2/3'
17 '-y+1/3, x-y+2/3, z+2/3'
18 'x+1/3, y+2/3, z+2/3'
loop_
_atom_type_symbol
_atom_type_oxidation_number
Ca2+ 2
Mn3+ 3
Mn4+ 4
O2- -2
loop_
_atom_site_label
_atom_site_type_symbol
_atom_site_symmetry_multiplicity
_atom_site_Wyckoff_symbol
_atom_site_fract_x
_atom_site_fract_y
_atom_site_fract_z
_atom_site_B_iso_or_equiv
_atom_site_occupancy
_atom_site_attached_hydrogens
Ca1 Ca2+ 3 a 0 0 0 0.62(4) 1. 0
Mn1 Mn3+ 9 e 0.5 0 0 0.732(12) 1. 0
Mn2 Mn3+ 9 d 0.5 0 0.5 0.559(13) 1. 0
Mn3 Mn4+ 3 b 0 0 0.5 0.52(3) 1. 0
O1 O2- 18 f 0.2235(2) 0.2740(2) 0.0811(2) 0.64(3) 1. 0
O2 O2- 18 f 0.34091(17) 0.52227(16) 0.3425(3) 0.50(3) 1. 0
#End of TTdata_252388-ICSD