
#(C) 2016 by FIZ Karlsruhe - Leibniz Institute for Information Infrastructure.  All rights reserved.
data_75532-ICSD
_database_code_ICSD 75532
_audit_creation_date 1996-04-22
_audit_update_record 2005-10-01
_chemical_name_systematic 'Copper tetrathiodiiridate(III)'
_chemical_formula_structural 'Cu (Ir2 S4)'
_chemical_formula_sum 'Cu1 Ir2 S4'
_chemical_name_structure_type CdMn2O4
_chemical_name_mineral Xingzhongite
_exptl_crystal_density_diffrn 8.13
_cell_measurement_temperature 10.
_publ_section_title

;
Structural and magnetic properties of metal-insulator transition in thiospinel
Cu Ir2 S4
;
loop_
_citation_id
_citation_journal_full
_citation_year
_citation_journal_volume
_citation_page_first
_citation_page_last
_citation_journal_id_ASTM
primary 'Journal of the Physical Society of Japan' 1994 63 3333 3339 JUPSAU
loop_
_publ_author_name
'Furubayashi, T.'
'Matsumoto, T.'
'Hagino, T.'
'Nagata, S.'
_cell_length_a 6.8645(4)
_cell_length_b 6.8645(4)
_cell_length_c 10.0257(6)
_cell_angle_alpha 90.
_cell_angle_beta 90.
_cell_angle_gamma 90.
_cell_volume 472.42
_cell_formula_units_Z 4
_symmetry_space_group_name_H-M 'I 41/a m d S'
_symmetry_Int_Tables_number 141
_refine_ls_R_factor_all 0.025
loop_
_symmetry_equiv_pos_site_id
_symmetry_equiv_pos_as_xyz
1 'y, -x+1/2, z+1/4'
2 '-y, x+1/2, z+1/4'
3 'y, -x, -z'
4 '-y, x, -z'
5 '-y, -x+1/2, z+1/4'
6 'y, x+1/2, z+1/4'
7 '-y, -x, -z'
8 'y, x, -z'
9 'x, -y+1/2, -z+1/4'
10 '-x, y+1/2, -z+1/4'
11 'x, -y, z'
12 '-x, y, z'
13 '-x, -y+1/2, -z+1/4'
14 'x, y+1/2, -z+1/4'
15 '-x, -y, z'
16 'x, y, z'
17 'y+1/2, -x, z+3/4'
18 '-y+1/2, x, z+3/4'
19 'y+1/2, -x+1/2, -z+1/2'
20 '-y+1/2, x+1/2, -z+1/2'
21 '-y+1/2, -x, z+3/4'
22 'y+1/2, x, z+3/4'
23 '-y+1/2, -x+1/2, -z+1/2'
24 'y+1/2, x+1/2, -z+1/2'
25 'x+1/2, -y, -z+3/4'
26 '-x+1/2, y, -z+3/4'
27 'x+1/2, -y+1/2, z+1/2'
28 '-x+1/2, y+1/2, z+1/2'
29 '-x+1/2, -y, -z+3/4'
30 'x+1/2, y, -z+3/4'
31 '-x+1/2, -y+1/2, z+1/2'
32 'x+1/2, y+1/2, z+1/2'
loop_
_atom_type_symbol
_atom_type_oxidation_number
Cu2+ 2
Ir3+ 3
S2- -2
loop_
_atom_site_label
_atom_site_type_symbol
_atom_site_symmetry_multiplicity
_atom_site_Wyckoff_symbol
_atom_site_fract_x
_atom_site_fract_y
_atom_site_fract_z
_atom_site_B_iso_or_equiv
_atom_site_occupancy
_atom_site_attached_hydrogens
Cu1 Cu2+ 4 a 0 0 0 0.3(7) 1. 0
Ir1 Ir3+ 8 d 0 0.25 0.625 0.4(3) 1. 0
S1 S2- 16 h 0 0.238(4) 0.391(2) 0.3(6) 1. 0
#End of TTdata_75532-ICSD