
#(C) 2016 by FIZ Karlsruhe - Leibniz Institute for Information Infrastructure.  All rights reserved.
data_35005-ICSD
_database_code_ICSD 35005
_audit_creation_date 1982-12-31
_audit_update_record 2007-08-01
_chemical_name_systematic 'Iron sulfide'
_chemical_formula_structural 'Fe S'
_chemical_formula_sum 'Fe1 S1'
_chemical_name_structure_type FeS(P6-2c)
_chemical_name_mineral 'Troilite 2H'
_exptl_crystal_density_diffrn 4.84
_cell_measurement_temperature 294.
_cell_measurement_pressure 100.
_publ_section_title
'High-pressure and high-temperature polymorphism of iron sulfide'
loop_
_citation_id
_citation_journal_full
_citation_year
_citation_journal_volume
_citation_page_first
_citation_page_last
_citation_journal_id_ASTM
primary 'Acta Crystallographica B (24,1968-38,1982)' 1982 38 1877 1887 ACBCAR
loop_
_publ_author_name
'King, H.E.jr.'
'Prewitt, C.T.'
_cell_length_a 5.963(1)
_cell_length_b 5.963(1)
_cell_length_c 11.754(1)
_cell_angle_alpha 90.
_cell_angle_beta 90.
_cell_angle_gamma 120.
_cell_volume 361.95
_cell_formula_units_Z 12
_symmetry_space_group_name_H-M 'P -6 2 c'
_symmetry_Int_Tables_number 190
loop_
_symmetry_equiv_pos_site_id
_symmetry_equiv_pos_as_xyz
1 '-x, -x+y, -z'
2 'x-y, -y, -z'
3 'y, x, -z'
4 '-x, -x+y, z+1/2'
5 'x-y, -y, z+1/2'
6 'y, x, z+1/2'
7 '-x+y, -x, -z+1/2'
8 '-y, x-y, -z+1/2'
9 'x, y, -z+1/2'
10 '-x+y, -x, z'
11 '-y, x-y, z'
12 'x, y, z'
loop_
_atom_type_symbol
_atom_type_oxidation_number
Fe2+ 2
S2- -2
loop_
_atom_site_label
_atom_site_type_symbol
_atom_site_symmetry_multiplicity
_atom_site_Wyckoff_symbol
_atom_site_fract_x
_atom_site_fract_y
_atom_site_fract_z
_atom_site_B_iso_or_equiv
_atom_site_occupancy
_atom_site_attached_hydrogens
Fe1 Fe2+ 12 i 0.3787(2) 0.0553(2) 0.12300(9) . 1. 0
S1 S2- 2 a 0 0 0 . 1. 0
S2 S2- 4 f 0.3333 0.6667 0.0208(2) . 1. 0
S3 S2- 6 h 0.6648(6) -.0041(4) 0.25 . 1. 0
loop_
_atom_site_aniso_label
_atom_site_aniso_type_symbol
_atom_site_aniso_beta_11
_atom_site_aniso_beta_22
_atom_site_aniso_beta_33
_atom_site_aniso_beta_12
_atom_site_aniso_beta_13
_atom_site_aniso_beta_23
Fe1 Fe2+ 0.0128(4) 0.01111(4) 0.00086(4) 0.0064(3) -.0001(2) -.0002(2)
S1 S2- 0.008(1) 0.008(1) 0.0011(2) 0.004(1) 0 0
S2 S2- 0.0089(7) 0.0089(7) 0.0008(2) 0.0044(4) 0 0
S3 S2- 0.0084(9) 0.0079(10) 0.0011(1) 0.0039(8) 0 0
#End of TTdata_35005-ICSD