
#(C) 2017 by FIZ Karlsruhe - Leibniz Institute for Information Infrastructure.  All rights reserved.
data_73508-ICSD
_database_code_ICSD 73508
_audit_creation_date 1994-06-30
_chemical_name_systematic 'Potassium molybdenum oxide (0.3/1/3)'
_chemical_formula_structural 'K0.3 Mo O3'
_chemical_formula_sum 'K0.3 Mo1 O3'
_chemical_name_structure_type K.3MoO3
_exptl_crystal_density_diffrn 4.32
_cell_measurement_temperature 100.
_publ_section_title

;
The incommensurately modulated structures of the blue bronzes K0.3MoO3 and
Rb0.3MoO3
;
loop_
_citation_id
_citation_journal_full
_citation_year
_citation_journal_volume
_citation_page_first
_citation_page_last
_citation_journal_id_ASTM
primary 'Acta Crystallographica, Section B: Structural Science' 1993 49 579 591
ASBSDK
loop_
_publ_author_name
'Schutte, W.J.'
'de Boer, J.L.'
_cell_length_a 18.162(2)
_cell_length_b 7.554(1)
_cell_length_c 9.816(1)
_cell_angle_alpha 90.
_cell_angle_beta 117.393(6)
_cell_angle_gamma 90.
_cell_volume 1195.71
_cell_formula_units_Z 20
_symmetry_space_group_name_H-M 'C 1 2/m 1'
_symmetry_Int_Tables_number 12
_refine_ls_R_factor_all 0.033
loop_
_symmetry_equiv_pos_site_id
_symmetry_equiv_pos_as_xyz
1 '-x, y, -z'
2 '-x, -y, -z'
3 'x, -y, z'
4 'x, y, z'
5 '-x+1/2, y+1/2, -z'
6 '-x+1/2, -y+1/2, -z'
7 'x+1/2, -y+1/2, z'
8 'x+1/2, y+1/2, z'
loop_
_atom_type_symbol
_atom_type_oxidation_number
K1+ 1
Mo5+ 5.7
O2- -2
loop_
_atom_site_label
_atom_site_type_symbol
_atom_site_symmetry_multiplicity
_atom_site_Wyckoff_symbol
_atom_site_fract_x
_atom_site_fract_y
_atom_site_fract_z
_atom_site_B_iso_or_equiv
_atom_site_occupancy
_atom_site_attached_hydrogens
K1 K1+ 2 d 0.5 0 0.5 . 1. 0
K2 K1+ 4 i 0.31163(4) 0.5 0.28148(8) . 1. 0
Mo1 Mo5+ 4 i 0.22647(1) 0 0.17456(2) . 1. 0
Mo2 Mo5+ 8 j 0.08019(1) 0.25493(2) 0.95770(2) . 1. 0
Mo3 Mo5+ 8 j 0.86182(1) 0.24982(2) 0.65362(2) . 1. 0
O1 O2- 4 f 0.75 0.25 0.5 . 1. 0
O2 O2- 4 i 0.2509(2) 0 0.0260(2) . 1. 0
O3 O2- 4 i 0.3196(1) 0 0.3362(2) . 1. 0
O4 O2- 4 i 0.0804(1) 0.5 -.0112(2) . 1. 0
O5 O2- 4 i 0.0891(1) 0 -.0068(2) . 1. 0
O6 O2- 4 i 0.8445(1) 0 0.6878(2) . 1. 0
O7 O2- 4 i 0.8594(2) 0.5 0.6696(2) . 1. 0
O8 O2- 8 j 0.1027(1) 0.2540(2) 0.8088(2) . 1. 0
O9 O2- 8 j 0.1861(1) 0.2437(2) 0.1618(2) . 1. 0
O10 O2- 8 j -.0874(1) 0.2194(2) 0.5478(2) . 1. 0
O11 O2- 8 j -.0374(1) 0.2460(2) 0.8534(2) . 1. 0
loop_
_atom_site_aniso_label
_atom_site_aniso_type_symbol
_atom_site_aniso_beta_11
_atom_site_aniso_beta_22
_atom_site_aniso_beta_33
_atom_site_aniso_beta_12
_atom_site_aniso_beta_13
_atom_site_aniso_beta_23
K1 K1+ 0.00111(3) 0.0033(1) 0.00764(16) 0 0.00218(6) 0
K2 K1+ 0.00065(2) 0.00265(7) 0.00160(4) 0 0.00034(1) 0
Mo1 Mo5+ 0.000126(5) 0.00074(2) 0.000560(16) 0 0.000036(6) 0
Mo2 Mo5+ 0.000134(3) 0.00055(2) 0.000408(12) -.000010(6) 0.000002(4)
0.000018(10)
Mo3 Mo5+ 0.000168(6) 0.00053(2) 0.000368(12) -.000015(6) -.000008(4)
0.000024(10)
O1 O2- 0.00018(4) 0.0017(2) 0.00132(16) 0.00004(8) -.00022(6) -.00012(16)
O2 O2- 0.00054(5) 0.0027(3) 0.00120(16) 0 0.00046(8) 0
O3 O2- 0.00035(5) 0.0022(3) 0.00108(16) 0 -.00004(8) 0
O4 O2- 0.00036(5) 0.0004(2) 0.00156(16) 0 0.00018(8) 0
O5 O2- 0.00029(5) 0.0007(2) 0.00132(16) 0 0.00014(8) 0
O6 O2- 0.00035(5) 0.0008(2) 0.00116(16) 0 0.00020(8) 0
O7 O2- 0.00054(5) 0.0004(2) 0.00152(16) 0 0.00012(8) 0
O8 O2- 0.00060(4) 0.0025(2) 0.00144(12) -.00002(7) 0.00056(6) -.00004(12)
O9 O2- 0.00024(3) 0.0009(1) 0.00096(12) -.00008(12) 0.00004(4) 0.0000(1)
O10 O2- 0.00051(4) 0.0024(2) 0.00140(12) 0.00012(7) 0.00046(6) 0.00016(12)
O11 O2- 0.00019(3) 0.0013(1) 0.00076(4) 0.00000(6) -.00004(4) -.00006(10)
#End of TTdata_73508-ICSD