
#(C) 2016 by FIZ Karlsruhe - Leibniz Institute for Information Infrastructure.  All rights reserved.
data_201763-ICSD
_database_code_ICSD 201763
_audit_creation_date 1986-12-03
_audit_update_record 2005-10-01
_chemical_name_systematic 'Lanthanum cobalt oxide'
_chemical_formula_structural 'La Co O3'
_chemical_formula_sum 'Co1 La1 O3'
_chemical_name_structure_type Perovskite-NdAlO3
_exptl_crystal_density_diffrn 7.29
_publ_section_title

;
A neutron diffraction study of La Co O3 in the temperature range 4.2 < T <
1248 K
;
loop_
_citation_id
_citation_journal_full
_citation_year
_citation_journal_volume
_citation_page_first
_citation_page_last
_citation_journal_id_ASTM
primary 'Journal of Solid State Chemistry' 1986 61 301 307 JSSCBI
loop_
_publ_author_name
'Thornton, G.'
'Tofield, B.C.'
'Hewat, A.W.'
_cell_length_a 5.3778(1)
_cell_length_b 5.3778(1)
_cell_length_c 5.3778(1)
_cell_angle_alpha 60.798(1)
_cell_angle_beta 60.798(1)
_cell_angle_gamma 60.798(1)
_cell_volume 111.96
_cell_formula_units_Z 2
_symmetry_space_group_name_H-M 'R -3 c R'
_symmetry_Int_Tables_number 167
_refine_ls_R_factor_all 0.079
loop_
_symmetry_equiv_pos_site_id
_symmetry_equiv_pos_as_xyz
1 '-x+1/2, -z+1/2, -y+1/2'
2 '-z+1/2, -y+1/2, -x+1/2'
3 '-y+1/2, -x+1/2, -z+1/2'
4 'x+1/2, z+1/2, y+1/2'
5 'z+1/2, y+1/2, x+1/2'
6 'y+1/2, x+1/2, z+1/2'
7 '-z, -x, -y'
8 '-y, -z, -x'
9 '-x, -y, -z'
10 'z, x, y'
11 'y, z, x'
12 'x, y, z'
loop_
_atom_type_symbol
_atom_type_oxidation_number
La3+ 3
Co3+ 3
O2- -2
loop_
_atom_site_label
_atom_site_type_symbol
_atom_site_symmetry_multiplicity
_atom_site_Wyckoff_symbol
_atom_site_fract_x
_atom_site_fract_y
_atom_site_fract_z
_atom_site_B_iso_or_equiv
_atom_site_occupancy
_atom_site_attached_hydrogens
La1 La3+ 2 a 0.25 0.25 0.25 . 1. 0
Co1 Co3+ 2 b 0 0 0 . 1. 0
O1 O2- 6 e 0.2003(1) 0.2997(1) 0.75 . 1. 0
loop_
_atom_site_aniso_label
_atom_site_aniso_type_symbol
_atom_site_aniso_B_11
_atom_site_aniso_B_22
_atom_site_aniso_B_33
_atom_site_aniso_B_12
_atom_site_aniso_B_13
_atom_site_aniso_B_23
La1 La3+ 0.36(1) 0.36(1) 0.36(1) -.11(1) -.11(1) -.11(1)
Co1 Co3+ 0.33(3) 0.33(3) 0.33(3) -.10(1) -.10(1) -.10(1)
O1 O2- 0.51(1) 0.51(1) 0.79(3) -.32(2) -.12(1) -.12(1)
#End of TTdata_201763-ICSD