
#(C) 2016 by FIZ Karlsruhe - Leibniz Institute for Information Infrastructure.  All rights reserved.
data_75197-ICSD
_database_code_ICSD 75197
_audit_creation_date 1995-10-17
_audit_update_record 2008-02-01
_chemical_name_systematic 'Niobium(IV) oxide - LT'
_chemical_formula_structural 'Nb O2'
_chemical_formula_sum 'Nb1 O2'
_chemical_name_structure_type NbO2
_exptl_crystal_density_diffrn 5.91
_cell_measurement_temperature 298.
_publ_section_title

;
A powder neutron diffraction study of semiconducting and metallic niobium
dioxide
;
loop_
_citation_id
_citation_journal_full
_citation_year
_citation_journal_volume
_citation_page_first
_citation_page_last
_citation_journal_id_ASTM
primary 'Journal of Solid State Chemistry' 1994 113 9 14 JSSCBI
loop_
_publ_author_name
'Bolzan, A.A.'
'Fong, C.'
'Kennedy, B.J.'
'Howard, C.J.'
_cell_length_a 13.7020(2)
_cell_length_b 13.7020(2)
_cell_length_c 5.9850(1)
_cell_angle_alpha 90.
_cell_angle_beta 90.
_cell_angle_gamma 90.
_cell_volume 1123.65
_cell_formula_units_Z 32
_symmetry_space_group_name_H-M 'I 41/a Z'
_symmetry_Int_Tables_number 88
_refine_ls_R_factor_all 0.014
loop_
_symmetry_equiv_pos_site_id
_symmetry_equiv_pos_as_xyz
1 '-y+3/4, x+3/4, -z+3/4'
2 'y+1/4, -x+3/4, -z+3/4'
3 'x, y+1/2, -z'
4 '-x, -y, -z'
5 'y+1/4, -x+1/4, z+1/4'
6 '-y+3/4, x+1/4, z+1/4'
7 '-x, -y+1/2, z'
8 'x, y, z'
9 '-y+1/4, x+1/4, -z+1/4'
10 'y+3/4, -x+1/4, -z+1/4'
11 'x+1/2, y, -z+1/2'
12 '-x+1/2, -y+1/2, -z+1/2'
13 'y+3/4, -x+3/4, z+3/4'
14 '-y+1/4, x+3/4, z+3/4'
15 '-x+1/2, -y, z+1/2'
16 'x+1/2, y+1/2, z+1/2'
loop_
_atom_type_symbol
_atom_type_oxidation_number
Nb4+ 4
O2- -2
loop_
_atom_site_label
_atom_site_type_symbol
_atom_site_symmetry_multiplicity
_atom_site_Wyckoff_symbol
_atom_site_fract_x
_atom_site_fract_y
_atom_site_fract_z
_atom_site_B_iso_or_equiv
_atom_site_occupancy
_atom_site_attached_hydrogens
Nb1 Nb4+ 16 f 0.1150(2) 0.1254(4) 0.4766(3) 0.26(3) 1. 0
Nb2 Nb4+ 16 f 0.1349(2) 0.1247(4) 0.0271(3) 0.33(4) 1. 0
O1 O2- 16 f 0.9863(3) 0.1285(6) -.0038(14) 0.52(7) 1. 0
O2 O2- 16 f 0.9758(3) 0.1303(5) 0.4999(15) 0.46(7) 1. 0
O3 O2- 16 f 0.2746(3) 0.1261(6) 0.9995(15) 0.49(6) 1. 0
O4 O2- 16 f 0.2641(3) 0.1231(6) 0.5044(14) 0.60(6) 1. 0
#End of TTdata_75197-ICSD