
#(C) 2016 by FIZ Karlsruhe - Leibniz Institute for Information Infrastructure.  All rights reserved.
data_42493-ICSD
_database_code_ICSD 42493
_audit_creation_date 2000-07-15
_audit_update_record 2012-02-01
_chemical_name_systematic 'Nickel sulfide'
_chemical_formula_structural 'Ni S'
_chemical_formula_sum 'Ni1 S1'
_chemical_name_structure_type Nickeline-NiAs
_exptl_crystal_density_diffrn 5.42
_cell_measurement_temperature 77.
_publ_section_title
'X-ray diffraction measurements on metallic and semiconducting hexagonal Ni S'
loop_
_citation_id
_citation_journal_full
_citation_year
_citation_journal_volume
_citation_page_first
_citation_page_last
_citation_journal_id_ASTM
primary 'Physical Review, Serie 3. B - Solid State (1,1970-17,1977)' 1970 2 2859
2862 PLRBAQ
loop_
_publ_author_name
'Trahan, J.'
'Goodrich, R.G.'
'Watkins, S.F.'
_cell_length_a 3.4456(8)
_cell_length_b 3.4456
_cell_length_c 5.405(1)
_cell_angle_alpha 90.
_cell_angle_beta 90.
_cell_angle_gamma 120.
_cell_volume 55.57
_cell_formula_units_Z 2
_symmetry_space_group_name_H-M 'P 63 m c'
_symmetry_Int_Tables_number 186
_refine_ls_R_factor_all 0.049
loop_
_symmetry_equiv_pos_site_id
_symmetry_equiv_pos_as_xyz
1 '-x, -x+y, z+1/2'
2 'x-y, -y, z+1/2'
3 'y, x, z+1/2'
4 'x-y, x, z+1/2'
5 'y, -x+y, z+1/2'
6 '-x, -y, z+1/2'
7 'x, x-y, z'
8 '-x+y, y, z'
9 '-y, -x, z'
10 '-x+y, -x, z'
11 '-y, x-y, z'
12 'x, y, z'
loop_
_atom_type_symbol
_atom_type_oxidation_number
Ni2+ 2
S2- -2
loop_
_atom_site_label
_atom_site_type_symbol
_atom_site_symmetry_multiplicity
_atom_site_Wyckoff_symbol
_atom_site_fract_x
_atom_site_fract_y
_atom_site_fract_z
_atom_site_B_iso_or_equiv
_atom_site_occupancy
_atom_site_attached_hydrogens
Ni1 Ni2+ 2 a 0 0 0 . 1. 0
S1 S2- 2 b 0.3333 0.6666 0.275(7) . 1. 0
loop_
_atom_site_aniso_label
_atom_site_aniso_type_symbol
_atom_site_aniso_beta_11
_atom_site_aniso_beta_22
_atom_site_aniso_beta_33
_atom_site_aniso_beta_12
_atom_site_aniso_beta_13
_atom_site_aniso_beta_23
Ni1 Ni2+ 0.044(15) 0.044 0.031(6) 0.022 0 0
S1 S2- -.015(15) -.015 -.004(7) -.0075 0 0
#End of TTdata_42493-ICSD