
#(C) 2016 by FIZ Karlsruhe - Leibniz Institute for Information Infrastructure.  All rights reserved.
data_16445-ICSD
_database_code_ICSD 16445
_audit_creation_date 1980-12-31
_audit_update_record 2013-02-01
_chemical_name_systematic 'Vanadium oxide (3/5) - LT'
_chemical_formula_structural 'V3 O5'
_chemical_formula_sum 'O5 V3'
_chemical_name_structure_type V3O5
_exptl_crystal_density_diffrn 4.72
_publ_section_title

;
The crystal structure of and valency distribution in the low-temperature
modification of V3 O5. The decisive importance of a few very weak reflexions
in a crystal-structure
;
loop_
_citation_id
_citation_journal_full
_citation_year
_citation_journal_volume
_citation_page_first
_citation_page_last
_citation_journal_id_ASTM
primary 'Acta Crystallographica B (24,1968-38,1982)' 1980 36 1332 1339 ACBCAR
loop_
_publ_author_name
'Asbrink, S.'
_cell_length_a 9.859(1)
_cell_length_b 5.0416(5)
_cell_length_c 6.991(1)
_cell_angle_alpha 90.
_cell_angle_beta 109.478(6)
_cell_angle_gamma 90.
_cell_volume 327.6
_cell_formula_units_Z 4
_symmetry_space_group_name_H-M 'P 1 2/c 1'
_symmetry_Int_Tables_number 13
_refine_ls_R_factor_all 0.025
loop_
_symmetry_equiv_pos_site_id
_symmetry_equiv_pos_as_xyz
1 'x, -y, z+1/2'
2 '-x, -y, -z'
3 '-x, y, -z+1/2'
4 'x, y, z'
loop_
_atom_type_symbol
_atom_type_oxidation_number
V4+ 4
V3+ 3
O2- -2
loop_
_atom_site_label
_atom_site_type_symbol
_atom_site_symmetry_multiplicity
_atom_site_Wyckoff_symbol
_atom_site_fract_x
_atom_site_fract_y
_atom_site_fract_z
_atom_site_B_iso_or_equiv
_atom_site_occupancy
_atom_site_attached_hydrogens
V1 V4+ 4 g 0.13216(2) 0.00626(4) 0.41073(3) . 1. 0
V2 V3+ 4 g 0.37089(2) 0.49659(4) 0.09136(3) . 1. 0
V3 V3+ 2 c 0 0.5 0 . 1. 0
V4 V3+ 2 d 0.5 0 0 . 1. 0
O1 O2- 4 g 0.29983(8) 0.14739(19) 0.46191(13) . 1. 0
O2 O2- 4 g 0.18668(8) 0.34014(18) 0.02629(13) . 1. 0
O3 O2- 4 g 0.08201(8) 0.15179(19) 0.63923(13) . 1. 0
O4 O2- 4 g 0.42105(8) 0.34123(18) 0.86342(12) . 1. 0
O5 O2- 2 e 0 0.29721(25) 0.25 . 1. 0
O6 O2- 2 f 0.5 0.18517(26) 0.25 . 1. 0
loop_
_atom_site_aniso_label
_atom_site_aniso_type_symbol
_atom_site_aniso_beta_11
_atom_site_aniso_beta_22
_atom_site_aniso_beta_33
_atom_site_aniso_beta_12
_atom_site_aniso_beta_13
_atom_site_aniso_beta_23
V1 V4+ 0.0088(1) 0.0371(5) 0.0168(3) -.0008(2) 0.0033(2) 0.0003(3)
V2 V3+ 0.0088(1) 0.0355(5) 0.0174(3) 0.0002(2) 0.0031(2) -.0028(3)
V3 V3+ 0.0108(2) 0.0312(7) 0.0194(4) 0.0015(3) 0.0055(2) -.0019(4)
V4 V3+ 0.0107(2) 0.0302(7) 0.0170(4) 0.0010(3) 0.0046(2) -.0013(4)
O1 O2- 0.0110(5) 0.0534(20) 0.0351(13) -.0043(8) 0.0050(6) -.0043(13)
O2 O2- 0.0108(5) 0.0378(18) 0.0359(12) -.0020(8) 0.0064(6) -.0062(12)
O3 O2- 0.0136(5) 0.0451(23) 0.0209(12) 0.0040(8) 0.0069(7) 0.0021(13)
O4 O2- 0.0138(5) 0.0347(22) 0.0187(12) 0.0002(8) 0.0066(6) 0.0021(13)
O5 O2- 0.0142(7) 0.0402(27) 0.0183(16) 0 0.0056(9) 0
O6 O2- 0.0151(7) 0.0356(26) 0.0166(15) 0 0.0059(9) 0
#End of TTdata_16445-ICSD