
#(C) 2016 by FIZ Karlsruhe - Leibniz Institute for Information Infrastructure.  All rights reserved.
data_9037-ICSD
_database_code_ICSD 9037
_audit_creation_date 1980-01-01
_audit_update_record 2004-04-01
_chemical_name_systematic 'Vanadium oxide (5/9) - LT'
_chemical_formula_structural 'V5 O9'
_chemical_formula_sum 'O9 V5'
_chemical_name_structure_type Ti5O9
_exptl_crystal_density_diffrn 4.73
_cell_measurement_temperature 110.
_publ_section_title
'Structural aspects of the metal-insulator transition in V5 O9'
loop_
_citation_id
_citation_journal_full
_citation_year
_citation_journal_volume
_citation_page_first
_citation_page_last
_citation_journal_id_ASTM
primary 'Journal of Solid State Chemistry' 1974 11 301 313 JSSCBI
loop_
_publ_author_name
'Marezio, M.'
'Dernier, P.D.'
'McWhan, D.B.'
'Kachi, S.'
_cell_length_a 5.467(1)
_cell_length_b 7.007(1)
_cell_length_c 8.735(1)
_cell_angle_alpha 97.4
_cell_angle_beta 112.31
_cell_angle_gamma 109.11
_cell_volume 279.98
_cell_formula_units_Z 2
_symmetry_space_group_name_H-M 'P -1'
_symmetry_Int_Tables_number 2
_refine_ls_R_factor_all 0.021
loop_
_symmetry_equiv_pos_site_id
_symmetry_equiv_pos_as_xyz
1 '-x, -y, -z'
2 'x, y, z'
loop_
_atom_type_symbol
_atom_type_oxidation_number
V0+ 0
O0+ 0
loop_
_atom_site_label
_atom_site_type_symbol
_atom_site_symmetry_multiplicity
_atom_site_Wyckoff_symbol
_atom_site_fract_x
_atom_site_fract_y
_atom_site_fract_z
_atom_site_B_iso_or_equiv
_atom_site_occupancy
_atom_site_attached_hydrogens
V1 V0+ 1 c 0 0.5 0 . 1. 0
V2 V0+ 1 a 0 0 0 . 1. 0
V3 V0+ 2 i 0.54899(15) 0.83275(9) 0.19766(7) . 1. 0
V4 V0+ 2 i 0.57287(14) 0.35132(9) 0.21398(6) . 1. 0
V5 V0+ 2 i 0.13267(13) 0.17133(9) 0.41555(6) . 1. 0
V6 V0+ 2 i 0.14989(13) 0.67757(8) 0.42581(6) . 1. 0
O1 O0+ 2 i 0.6490(5) 0.8517(3) 0.0265(2) . 1. 0
O2 O0+ 2 i 0.1671(5) 0.8067(3) 0.0809(2) . 1. 0
O3 O0+ 2 i 0.3941(5) 0.5345(3) 0.1379(3) . 1. 0
O4 O0+ 2 i 0.9217(5) 0.4893(4) 0.1937(3) . 1. 0
O5 O0+ 2 i 0.2164(5) 0.1901(3) 0.2449(2) . 1. 0
O6 O0+ 2 i 0.7287(5) 0.1479(3) 0.3220(2) . 1. 0
O7 O0+ 2 i 0.9483(5) 0.8653(3) 0.3674(2) . 1. 0
O8 O0+ 2 i 0.4887(5) 0.8014(3) 0.4175(3) . 1. 0
O9 O0+ 2 i 0.7757(5) 0.5379(3) 0.4624(2) . 1. 0
loop_
_atom_site_aniso_label
_atom_site_aniso_type_symbol
_atom_site_aniso_beta_11
_atom_site_aniso_beta_22
_atom_site_aniso_beta_33
_atom_site_aniso_beta_12
_atom_site_aniso_beta_13
_atom_site_aniso_beta_23
V1 V0+ 0.0053(3) 0.0025(2) 0.0016(1) 0.0023(2) 0.0017(1) 0.0008(1)
V2 V0+ 0.0038(3) 0.0029(2) 0.0019(1) 0.0019(2) 0.0002(1) -.0005(1)
V3 V0+ 0.0077(2) 0.0037(1) 0.0011(1) 0.0041(2) 0.0000(1) -.0001(1)
V4 V0+ 0.0035(2) 0.0029(1) 0.0012(1) 0.0008(1) 0.0008(1) 0.0008(1)
V5 V0+ 0.0046(2) 0.0020(1) 0.0017(1) 0.0014(1) 0.0020(1) 0.0007(1)
V6 V0+ 0.0069(2) 0.0029(1) 0.0015(1) 0.0029(1) 0.0022(1) 0.0011(1)
O1 O0+ 0.0024(8) 0.0027(4) 0.0018(2) 0.0003(5) 0.0006(3) 0.0006(2)
O2 O0+ 0.0062(8) 0.0021(4) 0.0017(2) 0.0013(5) 0.0018(4) 0.0006(2)
O3 O0+ 0.0031(8) 0.0038(4) 0.0027(2) 0.0012(5) 0.0016(4) 0.0021(2)
O4 O0+ 0.0041(8) 0.0031(4) 0.0029(2) 0.0013(5) 0.0027(4) 0.0013(2)
O5 O0+ 0.0031(7) 0.0033(4) 0.0013(2) 0.0009(5) 0.0014(3) 0.0005(2)
O6 O0+ 0.0054(8) 0.0019(3) 0.0011(2) 0.0018(5) 0.0012(3) 0.0004(2)
O7 O0+ 0.0038(8) 0.0025(4) 0.0015(2) 0.0012(5) 0.0012(3) 0.0006(2)
O8 O0+ 0.0026(8) 0.0023(4) 0.0030(2) 0.0014(5) 0.0009(4) 0.0013(2)
O9 O0+ 0.0019(8) 0.0013(3) 0.0014(2) 0.0000(5) 0.0010(3) 0.0003(2)
#End of TTdata_9037-ICSD