
#(C) 2016 by FIZ Karlsruhe - Leibniz Institute for Information Infrastructure.  All rights reserved.
data_1503-ICSD
_database_code_ICSD 1503
_audit_creation_date 1980-01-01
_audit_update_record 2000-07-15
_chemical_name_systematic 'Vanadium(IV) oxide - Al-doped'
_chemical_formula_structural 'V O2'
_chemical_formula_sum 'O2 V1'
_exptl_crystal_density_diffrn 2.32
_cell_measurement_temperature 323.
_publ_section_title
'Structural aspects of the metal-insulator transitions in V0.985 Al0.015 O2'
loop_
_citation_id
_citation_journal_full
_citation_year
_citation_journal_volume
_citation_page_first
_citation_page_last
_citation_journal_id_ASTM
primary 'Journal of Solid State Chemistry' 1977 22 423 438 JSSCBI
loop_
_publ_author_name
'Ghedira, M.'
'Vincent, H.'
'Marezio, M.'
'Launay, J.C.'
_cell_length_a 9.06
_cell_length_b 5.8000(1)
_cell_length_c 4.5217(1)
_cell_angle_alpha 90.
_cell_angle_beta 91.85(1)
_cell_angle_gamma 90.
_cell_volume 237.48
_cell_formula_units_Z 4
_symmetry_space_group_name_H-M 'P 1 2/m 1'
_symmetry_Int_Tables_number 10
_refine_ls_R_factor_all 0.014
loop_
_symmetry_equiv_pos_site_id
_symmetry_equiv_pos_as_xyz
1 '-x, y, -z'
2 '-x, -y, -z'
3 'x, -y, z'
4 'x, y, z'
loop_
_atom_type_symbol
_atom_type_oxidation_number
V4+ 4
O2- -2
loop_
_atom_site_label
_atom_site_type_symbol
_atom_site_symmetry_multiplicity
_atom_site_Wyckoff_symbol
_atom_site_fract_x
_atom_site_fract_y
_atom_site_fract_z
_atom_site_B_iso_or_equiv
_atom_site_occupancy
_atom_site_attached_hydrogens
V1 V4+ 2 i 0 0.7189(1) 0 . 1. 0
V2 V4+ 2 m 0.2312(1) 0 0.5311(1) . 1. 0
O1 O2- 4 o 0.1460(5) 0.2474(1) 0.2865(9) 0.0075(6) 1. 0
O2 O2- 2 m 0.6025(12) 0 0.7716(18) . 1. 0
O3 O2- 2 m -.0980(12) 0 0.2138(18) . 1. 0
loop_
_atom_site_aniso_label
_atom_site_aniso_type_symbol
_atom_site_aniso_U_11
_atom_site_aniso_U_22
_atom_site_aniso_U_33
_atom_site_aniso_U_12
_atom_site_aniso_U_13
_atom_site_aniso_U_23
V1 V4+ 0.0053(1) 0.0054(2) 0.0058(1) 0 0.0014(1) 0
V2 V4+ 0.0040(1) 0.0080(1) 0.0049(1) 0 0.0000(1) 0
O2 O2- 0.0037(7) 0.0031(9) 0.0097(8) 0 0.0017(6) 0
O3 O2- 0.0039(10) 0.004(1) 0.0171(17) 0 -.0017(10) 0
#End of TTdata_1503-ICSD