
#(C) 2018 by FIZ Karlsruhe - Leibniz Institute for Information Infrastructure.  All rights reserved.
data_237410-ICSD
_database_code_ICSD 237410
_audit_creation_date 2015-02-01
_chemical_name_systematic 'Copper iron ytterbium oxide (3/4/1/12)'
_chemical_formula_structural 'Cu3 Fe4 Yb O12'
_chemical_formula_sum 'Cu3 Fe4 O12 Yb1'
_chemical_name_structure_type CaCu3Cr2Sb2O12
_exptl_crystal_density_diffrn 6.68
_cell_measurement_temperature 100.
_publ_section_title

;
Control of bond-strain-induced electronic phase transitions in iron
perovskites
;
loop_
_citation_id
_citation_journal_full
_citation_year
_citation_journal_volume
_citation_page_first
_citation_page_last
_citation_journal_id_ASTM
primary 'Inorganic Chemistry' 2013 52 13751 13761 INOCAJ
loop_
_publ_author_name
'Yamada, Ikuya'
'Etani, Hidenobu'
'Tsuchida, Kazuki'
'Marukawa, Shohei'
'Hayashi, Naoaki'
'Kawakami, Takateru'
'Mizumaki, Masaichiro'
'Ohgushi, Kenya'
'Kusano, Yoshihiro'
'Kim, Jungeun'
'Tsuji, Naruki'
'Takahashi, Ryoji'
'Nishiyama, Norimasa'
'Inoue, Toru'
'Irifune, Tetsuo'
'Takano, Mikio'
_cell_length_a 7.28933(6)
_cell_length_b 7.28933(6)
_cell_length_c 7.28933(6)
_cell_angle_alpha 90
_cell_angle_beta 90
_cell_angle_gamma 90
_cell_volume 387.3
_cell_formula_units_Z 2
_symmetry_space_group_name_H-M 'P n -3 Z'
_symmetry_Int_Tables_number 201
_refine_ls_R_factor_all 0.0051
loop_
_symmetry_equiv_pos_site_id
_symmetry_equiv_pos_as_xyz
1 '-z, x+1/2, y+1/2'
2 'z+1/2, x+1/2, -y'
3 'z+1/2, -x, y+1/2'
4 '-z, -x, -y'
5 'y+1/2, -z, x+1/2'
6 '-y, z+1/2, x+1/2'
7 'y+1/2, z+1/2, -x'
8 '-y, -z, -x'
9 'x+1/2, y+1/2, -z'
10 'x+1/2, -y, z+1/2'
11 '-x, y+1/2, z+1/2'
12 '-x, -y, -z'
13 'z, -x+1/2, -y+1/2'
14 '-z+1/2, -x+1/2, y'
15 '-z+1/2, x, -y+1/2'
16 'z, x, y'
17 '-y+1/2, z, -x+1/2'
18 'y, -z+1/2, -x+1/2'
19 '-y+1/2, -z+1/2, x'
20 'y, z, x'
21 '-x+1/2, -y+1/2, z'
22 '-x+1/2, y, -z+1/2'
23 'x, -y+1/2, -z+1/2'
24 'x, y, z'
loop_
_atom_type_symbol
_atom_type_oxidation_number
Yb3+ 3
Cu3+ 3
Fe3+ 3
O2- -2
loop_
_atom_site_label
_atom_site_type_symbol
_atom_site_symmetry_multiplicity
_atom_site_Wyckoff_symbol
_atom_site_fract_x
_atom_site_fract_y
_atom_site_fract_z
_atom_site_B_iso_or_equiv
_atom_site_occupancy
_atom_site_attached_hydrogens
Yb1 Yb3+ 2 a 0.25 0.25 0.25 0.0021(1) 1 0
Cu1 Cu3+ 6 d 0.25 0.75 0.75 0.0030(1) 1 0
Fe1 Fe3+ 4 c 0.5 0.5 0.5 0.0014(1) 1 0
Fe2 Fe3+ 4 b 0 0 0 0.0014(1) 1 0
O1 O2- 24 h 0.247(2) 0.4248(3) 0.5496(3) 0.0037(7) 1 0
#End of TTdata_237410-ICSD