
#(C) 2016 by FIZ Karlsruhe - Leibniz Institute for Information Infrastructure.  All rights reserved.
data_15059-ICSD
_database_code_ICSD 15059
_audit_creation_date 1980-01-01
_audit_update_record 2007-08-01
_chemical_name_systematic 'Dicalcium diiferrate(III)'
_chemical_formula_structural 'Ca2 (Fe2 O5)'
_chemical_formula_sum 'Ca2 Fe2 O5'
_chemical_name_structure_type Brownmillerite-Ca2AlFeO5(oP)
_chemical_name_mineral Srebrodolskite
_exptl_crystal_density_diffrn 4.03
_publ_section_title
'Refinement of the crystal structure of dicalcium ferrite, Ca2 Fe2 O5'
loop_
_citation_id
_citation_journal_full
_citation_year
_citation_journal_volume
_citation_page_first
_citation_page_last
_citation_journal_id_ASTM
primary 'Acta Chemica Scandinavica (1-27,1973-42,1988)' 1971 25 3616 3624 ACSAA4
loop_
_publ_author_name
'Berggren, J.'
_cell_length_a 5.4253(5)
_cell_length_b 14.7687(17)
_cell_length_c 5.5980(5)
_cell_angle_alpha 90.
_cell_angle_beta 90.
_cell_angle_gamma 90.
_cell_volume 448.54
_cell_formula_units_Z 4
_symmetry_space_group_name_H-M 'P n m a'
_symmetry_Int_Tables_number 62
_refine_ls_R_factor_all 0.076
loop_
_symmetry_equiv_pos_site_id
_symmetry_equiv_pos_as_xyz
1 'x+1/2, y, -z+1/2'
2 'x, -y+1/2, z'
3 '-x+1/2, y+1/2, z+1/2'
4 '-x, -y, -z'
5 '-x+1/2, -y, z+1/2'
6 '-x, y+1/2, -z'
7 'x+1/2, -y+1/2, -z+1/2'
8 'x, y, z'
loop_
_atom_type_symbol
_atom_type_oxidation_number
Ca2+ 2
Fe3+ 3
O2- -2
loop_
_atom_site_label
_atom_site_type_symbol
_atom_site_symmetry_multiplicity
_atom_site_Wyckoff_symbol
_atom_site_fract_x
_atom_site_fract_y
_atom_site_fract_z
_atom_site_B_iso_or_equiv
_atom_site_occupancy
_atom_site_attached_hydrogens
Ca1 Ca2+ 8 d 0.4817(2) 0.1080(1) 0.0231(2) . 1. 0
Fe1 Fe3+ 4 a 0 0 0 . 1. 0
Fe2 Fe3+ 4 c -.0541(2) 0.25 -.0659(2) . 1. 0
O1 O2- 8 d 0.2623(7) -.0154(3) 0.2377(6) . 1. 0
O2 O2- 8 d 0.0224(8) 0.1406(3) 0.0715(6) . 1. 0
O3 O2- 4 c 0.5981(10) 0.25 -.1243(8) . 1. 0
loop_
_atom_site_aniso_label
_atom_site_aniso_type_symbol
_atom_site_aniso_beta_11
_atom_site_aniso_beta_22
_atom_site_aniso_beta_33
_atom_site_aniso_beta_12
_atom_site_aniso_beta_13
_atom_site_aniso_beta_23
Ca1 Ca2+ 0.0089(3) 0.0011 0.0066(2) -.00025(5) 0.00135(15) 0.00005(5)
Fe1 Fe3+ 0.0044(3) 0.0014 0.0045(2) 0.00005(5) -.0001(2) 0.00010(5)
Fe2 Fe3+ 0.0053(3) 0.001 0.0055(2) 0 -.00005(15) 0
O1 O2- 0.0089(12) 0.0018(1) 0.0053(6) -.00005(25) -.0020(6) 0.0003(2)
O2 O2- 0.0120(12) 0.0013(1) 0.0086(7) 0.00025(25) 0.00005(75) 0.00030(25)
O3 O2- 0.0074(15) 0.0016(1) 0.0071(8) 0 -.0007(9) 0
#End of TTdata_15059-ICSD