
#(C) 2019 by FIZ Karlsruhe - Leibniz Institute for Information Infrastructure.  All rights reserved.
data_291387-ICSD
_database_code_ICSD 291387
_audit_creation_date 2015-08-01
_chemical_name_systematic 'Copper oxide'
_chemical_formula_structural 'Cu O'
_chemical_formula_sum 'Cu1 O1'
_chemical_name_structure_type CuO(mS8)
_exptl_crystal_density_diffrn 6.54
_publ_section_title

;
Structural phase transitions in the kagome lattice based materials Cs2-x Rbx
Sn Cu3 F12 (x = 0, 0.5, 1.0, 1.5)
;
loop_
_citation_id
_citation_journal_full
_citation_year
_citation_journal_volume
_citation_page_first
_citation_page_last
_citation_journal_id_ASTM
primary CrystEngComm 2014 16 7419 7425 CRECF4
loop_
_publ_author_name
'Downie, L.J.'
'Black, C.'
'Ardashnikova, E.I.'
'Tang, C.C.'
'Vasiliev, A.N.'
'Golovanov, A.N.'
'Berdonosov, P.S.'
'Dolgikh, V.A.'
'Lightfoot, P.'
_cell_length_a 4.6878(14)
_cell_length_b 3.4045(9)
_cell_length_c 5.1360(16)
_cell_angle_alpha 90.
_cell_angle_beta 99.602(21)
_cell_angle_gamma 90.
_cell_volume 80.82
_cell_formula_units_Z 4
_symmetry_space_group_name_H-M 'C 1 2/c 1'
_symmetry_Int_Tables_number 15
loop_
_symmetry_equiv_pos_site_id
_symmetry_equiv_pos_as_xyz
1 'x, -y, z+1/2'
2 '-x, -y, -z'
3 '-x, y, -z+1/2'
4 'x, y, z'
5 'x+1/2, -y+1/2, z+1/2'
6 '-x+1/2, -y+1/2, -z'
7 '-x+1/2, y+1/2, -z+1/2'
8 'x+1/2, y+1/2, z'
loop_
_atom_type_symbol
_atom_type_oxidation_number
Cu2+ 2
O2- -2
loop_
_atom_site_label
_atom_site_type_symbol
_atom_site_symmetry_multiplicity
_atom_site_Wyckoff_symbol
_atom_site_fract_x
_atom_site_fract_y
_atom_site_fract_z
_atom_site_B_iso_or_equiv
_atom_site_occupancy
_atom_site_attached_hydrogens
Cu1 Cu2+ 4 c 0.25 0.25 0. -0.0076(23) 1. 0
O1 O2- 4 e 0. 0.4184 0.25 -0.0076(23) 1. 0
#End of TTdata_291387-ICSD