
#(C) 2019 by FIZ Karlsruhe - Leibniz Institute for Information Infrastructure.  All rights reserved.
data_16404-ICSD
_database_code_ICSD 16404
_audit_creation_date 1980-12-31
_audit_update_record 2000-07-15
_chemical_name_systematic 'Dilanthanum cobalt oxide'
_chemical_formula_structural 'La2 Co O4'
_chemical_formula_sum 'Co1 La2 O4'
_chemical_name_structure_type La2CuO4
_exptl_crystal_density_diffrn 7.04
_publ_section_title
'Ein Beitrag zur Chemie der Oxocobaltate(II): La2 Co O4, Sm2 Co O4'
loop_
_citation_id
_citation_journal_full
_citation_year
_citation_journal_volume
_citation_page_first
_citation_page_last
_citation_journal_id_ASTM
primary 'Zeitschrift fuer Anorganische und Allgemeine Chemie (1950) (DE)' 1980
470 59 63 ZAACAB
loop_
_publ_author_name
'Lehmann, U.'
'Mueller Buschbaum, H.'
_cell_length_a 5.49
_cell_length_b 5.488
_cell_length_c 12.548
_cell_angle_alpha 90.
_cell_angle_beta 90.
_cell_angle_gamma 90.
_cell_volume 378.06
_cell_formula_units_Z 4
_symmetry_space_group_name_H-M 'A b m a'
_symmetry_Int_Tables_number 64
_refine_ls_R_factor_all 0.102
loop_
_symmetry_equiv_pos_site_id
_symmetry_equiv_pos_as_xyz
1 'x+1/2, -y, -z+1/2'
2 '-x+1/2, -y, z+1/2'
3 'x, -y, z'
4 '-x, -y, -z'
5 '-x+1/2, y, z+1/2'
6 'x+1/2, y, -z+1/2'
7 '-x, y, -z'
8 'x, y, z'
9 'x+1/2, -y+1/2, -z'
10 '-x+1/2, -y+1/2, z'
11 'x, -y+1/2, z+1/2'
12 '-x, -y+1/2, -z+1/2'
13 '-x+1/2, y+1/2, z'
14 'x+1/2, y+1/2, -z'
15 '-x, y+1/2, -z+1/2'
16 'x, y+1/2, z+1/2'
loop_
_atom_type_symbol
_atom_type_oxidation_number
La3+ 3
Co2+ 2
O2- -2
loop_
_atom_site_label
_atom_site_type_symbol
_atom_site_symmetry_multiplicity
_atom_site_Wyckoff_symbol
_atom_site_fract_x
_atom_site_fract_y
_atom_site_fract_z
_atom_site_B_iso_or_equiv
_atom_site_occupancy
_atom_site_attached_hydrogens
La1 La3+ 8 f 0.0003 0 0.3612 0.51 1. 0
Co1 Co2+ 4 a 0 0 0 0.38 1. 0
O1 O2- 8 e 0.25 0.25 0.0089 0.67 1. 0
O2 O2- 8 f 0.0063 0 0.162 2.52 1. 0
#End of TTdata_16404-ICSD