
#(C) 2019 by FIZ Karlsruhe - Leibniz Institute for Information Infrastructure.  All rights reserved.
data_71795-ICSD
_database_code_ICSD 71795
_audit_creation_date 1993-08-22
_audit_update_record 2006-04-01
_chemical_name_systematic 'Dilanthanum cuprate'
_chemical_formula_structural 'La2 (Cu O4)'
_chemical_formula_sum 'Cu1 La2 O4'
_chemical_name_structure_type La2CuO4
_exptl_crystal_density_diffrn 7.09
_cell_measurement_temperature 15.
_publ_section_title
'Structural aspects of the phase separation in La2 Cu O4.032'
loop_
_citation_id
_citation_journal_full
_citation_year
_citation_journal_volume
_citation_page_first
_citation_page_last
_citation_journal_id_ASTM
primary 'Materials Research Society Symposium Proceedings' 1990 169 47 52 MRSPDH
loop_
_publ_author_name
'Chaillout, C.'
'Bordet, P.'
'Chenavas, J.'
'Cheong, S.-W.'
'Fisk, Z.'
'Marezio, M.'
'Morosin, B.'
'Schirber, J.E.'
_cell_length_a 5.350(1)
_cell_length_b 13.148(6)
_cell_length_c 5.398(3)
_cell_angle_alpha 90.
_cell_angle_beta 90.
_cell_angle_gamma 90.
_cell_volume 379.71
_cell_formula_units_Z 4
_symmetry_space_group_name_H-M 'C m c a'
_symmetry_Int_Tables_number 64
_refine_ls_R_factor_all 0.039
loop_
_symmetry_equiv_pos_site_id
_symmetry_equiv_pos_as_xyz
1 '-x, -y+1/2, z+1/2'
2 '-x, y+1/2, -z+1/2'
3 '-x, y, z'
4 '-x, -y, -z'
5 'x, y+1/2, -z+1/2'
6 'x, -y+1/2, z+1/2'
7 'x, -y, -z'
8 'x, y, z'
9 '-x+1/2, -y, z+1/2'
10 '-x+1/2, y, -z+1/2'
11 '-x+1/2, y+1/2, z'
12 '-x+1/2, -y+1/2, -z'
13 'x+1/2, y, -z+1/2'
14 'x+1/2, -y, z+1/2'
15 'x+1/2, -y+1/2, -z'
16 'x+1/2, y+1/2, z'
loop_
_atom_type_symbol
_atom_type_oxidation_number
La3+ 3
Cu2+ 2
O2- -2
loop_
_atom_site_label
_atom_site_type_symbol
_atom_site_symmetry_multiplicity
_atom_site_Wyckoff_symbol
_atom_site_fract_x
_atom_site_fract_y
_atom_site_fract_z
_atom_site_B_iso_or_equiv
_atom_site_occupancy
_atom_site_attached_hydrogens
La1 La3+ 8 f 0 0.36111(4) 0.0069(1) . 1. 0
Cu1 Cu2+ 4 a 0 0 0 . 1. 0
O1 O2- 8 f 0 0.18307(8) -.0356(3) . 0.943(5) 0
O2 O2- 8 e 0.25 0.99303(7) 0.75 . 0.993(4) 0
O3 O2- 16 g 0.030(5) 0.182(2) 0.100(5) 0.005 0.024(2) 0
O4 O2- 8 e 0.25 0.243(4) 0.25 0.005 0.016(2) 0
loop_
_atom_site_aniso_label
_atom_site_aniso_type_symbol
_atom_site_aniso_U_11
_atom_site_aniso_U_22
_atom_site_aniso_U_33
_atom_site_aniso_U_12
_atom_site_aniso_U_13
_atom_site_aniso_U_23
La1 La3+ 0.0055(7) 0.0030(2) 0.0022(6) 0 0 0.0002(2)
Cu1 Cu2+ 0.0042(9) 0.0050(3) 0.0001(8) 0 0 0
O1 O2- 0.0077(6) 0.0040(3) 0.0123(5) 0 0 -.0014(4)
O2 O2- 0.0055(7) 0.0094(3) 0.0023(6) 0 0.0007(2) 0
#End of TTdata_71795-ICSD