
#(C) 2016 by FIZ Karlsruhe - Leibniz Institute for Information Infrastructure.  All rights reserved.
data_56771-ICSD
_database_code_ICSD 56771
_audit_creation_date 2003-04-01
_audit_update_record 2016-08-01
_chemical_name_systematic 'Lanthanum oxide'
_chemical_formula_structural 'La2 O3'
_chemical_formula_sum 'La2 O3'
_chemical_name_structure_type La2O3
_exptl_crystal_density_diffrn 6.58
_publ_section_title

;
Die Kristallstrukturen von Ce2 O3 (A-Form), Li Ce O2 und Ce F3 - Ein Beitrag
zur Kristallchemie des dreiwertigen Cers
;
loop_
_citation_id
_citation_journal_full
_citation_year
_citation_journal_volume
_citation_page_first
_citation_page_last
_citation_journal_id_ASTM
primary 'Dissertation Universitaet Karlsruhe' 1985 1985 1 110 DIKARM
loop_
_publ_author_name
'Schiller, G.'
_cell_length_a 3.934(1)
_cell_length_b 3.934
_cell_length_c 6.136(2)
_cell_angle_alpha 90.
_cell_angle_beta 90.
_cell_angle_gamma 120.
_cell_volume 82.24
_cell_formula_units_Z 1
_symmetry_space_group_name_H-M 'P -3 m 1'
_symmetry_Int_Tables_number 164
_refine_ls_R_factor_all 0.021
loop_
_symmetry_equiv_pos_site_id
_symmetry_equiv_pos_as_xyz
1 'x-y, -y, -z'
2 '-x, -x+y, -z'
3 'y, x, -z'
4 'x-y, x, -z'
5 'y, -x+y, -z'
6 '-x, -y, -z'
7 '-x+y, y, z'
8 'x, x-y, z'
9 '-y, -x, z'
10 '-x+y, -x, z'
11 '-y, x-y, z'
12 'x, y, z'
loop_
_atom_type_symbol
_atom_type_oxidation_number
La3+ 3
O2- -2
loop_
_atom_site_label
_atom_site_type_symbol
_atom_site_symmetry_multiplicity
_atom_site_Wyckoff_symbol
_atom_site_fract_x
_atom_site_fract_y
_atom_site_fract_z
_atom_site_B_iso_or_equiv
_atom_site_occupancy
_atom_site_attached_hydrogens
La1 La3+ 2 d 0.3333 0.6667 0.24604(7) . 1. 0
O1 O2- 2 d 0.3333 0.6667 0.6464(5) . 1. 0
O2 O2- 1 a 0 0 0 . 1. 0
loop_
_atom_site_aniso_label
_atom_site_aniso_type_symbol
_atom_site_aniso_U_11
_atom_site_aniso_U_22
_atom_site_aniso_U_33
_atom_site_aniso_U_12
_atom_site_aniso_U_13
_atom_site_aniso_U_23
La1 La3+ 0.00695(4) 0.00695 0.00846(5) 0.00348 0 0
O1 O2- 0.0088(5) 0.0088 0.0134(9) 0.0044 0 0
O2 O2- 0.0151(11) 0.0151 0.0152(16) 0.0076 0 0
#End of TTdata_56771-ICSD