
#(C) 2017 by FIZ Karlsruhe - Leibniz Institute for Information Infrastructure.  All rights reserved.
data_78062-ICSD
_database_code_ICSD 78062
_audit_creation_date 1995-10-17
_audit_update_record 2007-04-01
_chemical_name_systematic 'Lanthanum ferrate(III)'
_chemical_formula_structural 'La (Fe O3)'
_chemical_formula_sum 'Fe1 La1 O3'
_chemical_name_structure_type Perovskite-GdFeO3
_exptl_crystal_density_diffrn 6.64
_publ_section_title

;
The effect of oxygen stoichiometry on phase relations and structure in the
system La1-x Srx Fe O3-delta (0<= x<= 1, 0<= delta<= 0.5)
;
loop_
_citation_id
_citation_journal_full
_citation_year
_citation_journal_volume
_citation_page_first
_citation_page_last
_citation_journal_id_ASTM
primary 'Journal of Solid State Chemistry' 1994 109 134 144 JSSCBI
loop_
_publ_author_name
'Dann, S.E.'
'Currie, D.B.'
'Weller, M.T.'
'Thomas, M.F.'
'Al Rawwas, A.D.'
_cell_length_a 5.55702(2)
_cell_length_b 5.56521(1)
_cell_length_c 7.85426(2)
_cell_angle_alpha 90.
_cell_angle_beta 90.
_cell_angle_gamma 90.
_cell_volume 242.9
_cell_formula_units_Z 4
_symmetry_space_group_name_H-M 'P b n m'
_symmetry_Int_Tables_number 62
_refine_ls_R_factor_all 0.0162
loop_
_symmetry_equiv_pos_site_id
_symmetry_equiv_pos_as_xyz
1 '-x+1/2, y+1/2, z'
2 'x, y, -z+1/2'
3 'x+1/2, -y+1/2, z+1/2'
4 '-x, -y, -z'
5 'x+1/2, -y+1/2, -z'
6 '-x, -y, z+1/2'
7 '-x+1/2, y+1/2, -z+1/2'
8 'x, y, z'
loop_
_atom_type_symbol
_atom_type_oxidation_number
La3+ 3
Fe3+ 3
O2- -2
loop_
_atom_site_label
_atom_site_type_symbol
_atom_site_symmetry_multiplicity
_atom_site_Wyckoff_symbol
_atom_site_fract_x
_atom_site_fract_y
_atom_site_fract_z
_atom_site_B_iso_or_equiv
_atom_site_occupancy
_atom_site_attached_hydrogens
La1 La3+ 4 c 0.9923(4) 0.0292(1) 0.25 0.52(1) 1. 0
Fe1 Fe3+ 4 b 0 0.5 0 0.73(1) 1. 0
O1 O2- 4 c 0.0748(4) 0.4855(3) 0.25 0.37(2) 1. 0
O2 O2- 8 d 0.7191(2) 0.2817(2) 0.0394(1) 0.35(1) 1. 0
#End of TTdata_78062-ICSD