
#(C) 2016 by FIZ Karlsruhe - Leibniz Institute for Information Infrastructure.  All rights reserved.
data_73900-ICSD
_database_code_ICSD 73900
_audit_creation_date 1995-01-10
_audit_update_record 2010-02-01
_chemical_name_systematic 'Lanthanum vanadate(III)'
_chemical_formula_structural 'La (V O3)'
_chemical_formula_sum 'La1 O3 V1'
_chemical_name_structure_type LaVO3
_exptl_crystal_density_diffrn 6.54
_cell_measurement_temperature 100.
_publ_section_title

;
Structural aspects of the crystallographic-magnetic transition in La V O3
around 140 K
;
loop_
_citation_id
_citation_journal_full
_citation_year
_citation_journal_volume
_citation_page_first
_citation_page_last
_citation_journal_id_ASTM
primary 'Journal of Solid State Chemistry' 1993 106 253 270 JSSCBI
loop_
_publ_author_name
'Bordet, P.'
'Chaillout, C.'
'Marezio, M.'
'Huang, Q.'
'Santoro, A.'
'Cheong, S.-W.'
'Takagi, H.'
'Oglesby, C.S.'
'Batlogg, B.'
_cell_length_a 5.59360(4)
_cell_length_b 7.75951(5)
_cell_length_c 5.56490(3)
_cell_angle_alpha 90.
_cell_angle_beta 90.
_cell_angle_gamma 90.1250(4)
_cell_volume 241.54
_cell_formula_units_Z 4
_symmetry_space_group_name_H-M 'P 1 1 21/a'
_symmetry_Int_Tables_number 14
_refine_ls_R_factor_all 0.046
loop_
_symmetry_equiv_pos_site_id
_symmetry_equiv_pos_as_xyz
1 'x+1/2, y, -z+1/2'
2 '-x, -y, -z'
3 '-x+1/2, -y, z+1/2'
4 'x, y, z'
loop_
_atom_type_symbol
_atom_type_oxidation_number
La3+ 3
V3+ 3
O2- -2
loop_
_atom_site_label
_atom_site_type_symbol
_atom_site_symmetry_multiplicity
_atom_site_Wyckoff_symbol
_atom_site_fract_x
_atom_site_fract_y
_atom_site_fract_z
_atom_site_B_iso_or_equiv
_atom_site_occupancy
_atom_site_attached_hydrogens
La1 La3+ 4 e 0.0334(3) 0.25 0.9924(4) 0.28(4) 1. 0
V1 V3+ 2 c 0.5 0 0 0.30(4) 1. 0
V2 V3+ 2 d 0 0.5 0.5 0.30(4) 1. 0
O1 O2- 4 e 0.4885(5) 0.25 0.0716(4) 0.29(5) 1. 0
O2 O2- 4 e 0.2789(9) 0.0377(9) 0.7134(17) 0.35(4) 1. 0
O3 O2- 4 e 0.7119(10) 0.5391(10) 0.2792(17) 0.35(4) 1. 0
#End of TTdata_73900-ICSD