
#(C) 2016 by FIZ Karlsruhe - Leibniz Institute for Information Infrastructure.  All rights reserved.
data_428543-ICSD
_database_code_ICSD 428543
_audit_creation_date 2015-08-01
_chemical_name_systematic 'Dilutetium trioxide'
_chemical_formula_structural 'Lu2 O3'
_chemical_formula_sum 'Lu2 O3'
_chemical_name_structure_type Bixbyite-Mn2O3
_exptl_crystal_density_diffrn 9.5
_cell_measurement_temperature 298.
_publ_section_title

;
Structural investigations of Lu2 O3 as single crystal and polycrystalline
transparent ceramic
;
loop_
_citation_id
_citation_journal_full
_citation_year
_citation_journal_volume
_citation_page_first
_citation_page_last
_citation_journal_id_ASTM
primary 'Crystal Growth and Design' 2014 14 3327 3334 CGDEFU
loop_
_publ_author_name
'Guzik, Malgorzata'
'Pejchal, Jan'
'Yoshikawa, Akira'
'Ito, Akihiko'
'Goto, Takashi'
'Siczek, Milosz'
'Lis, Tadeusz'
'Boulon, Georges'
_cell_length_a 10.364(2)
_cell_length_b 10.364(2)
_cell_length_c 10.364(2)
_cell_angle_alpha 90.
_cell_angle_beta 90.
_cell_angle_gamma 90.
_cell_volume 1113.22
_cell_formula_units_Z 16
_symmetry_space_group_name_H-M 'I a -3'
_symmetry_Int_Tables_number 206
_refine_ls_R_factor_all 0.042
loop_
_symmetry_equiv_pos_site_id
_symmetry_equiv_pos_as_xyz
1 '-z, x, y+1/2'
2 'z, x+1/2, -y'
3 'z+1/2, -x, y'
4 '-z, -x, -y'
5 'y+1/2, -z, x'
6 '-y, z, x+1/2'
7 'y, z+1/2, -x'
8 '-y, -z, -x'
9 'x, y+1/2, -z'
10 'x+1/2, -y, z'
11 '-x, y, z+1/2'
12 '-x, -y, -z'
13 'z, -x, -y+1/2'
14 '-z, -x+1/2, y'
15 '-z+1/2, x, -y'
16 'z, x, y'
17 '-y+1/2, z, -x'
18 'y, -z, -x+1/2'
19 '-y, -z+1/2, x'
20 'y, z, x'
21 '-x, -y+1/2, z'
22 '-x+1/2, y, -z'
23 'x, -y, -z+1/2'
24 'x, y, z'
25 '-z+1/2, x+1/2, y'
26 'z+1/2, x, -y+1/2'
27 'z, -x+1/2, y+1/2'
28 '-z+1/2, -x+1/2, -y+1/2'
29 'y, -z+1/2, x+1/2'
30 '-y+1/2, z+1/2, x'
31 'y+1/2, z, -x+1/2'
32 '-y+1/2, -z+1/2, -x+1/2'
33 'x+1/2, y, -z+1/2'
34 'x, -y+1/2, z+1/2'
35 '-x+1/2, y+1/2, z'
36 '-x+1/2, -y+1/2, -z+1/2'
37 'z+1/2, -x+1/2, -y'
38 '-z+1/2, -x, y+1/2'
39 '-z, x+1/2, -y+1/2'
40 'z+1/2, x+1/2, y+1/2'
41 '-y, z+1/2, -x+1/2'
42 'y+1/2, -z+1/2, -x'
43 '-y+1/2, -z, x+1/2'
44 'y+1/2, z+1/2, x+1/2'
45 '-x+1/2, -y, z+1/2'
46 '-x, y+1/2, -z+1/2'
47 'x+1/2, -y+1/2, -z'
48 'x+1/2, y+1/2, z+1/2'
loop_
_atom_type_symbol
_atom_type_oxidation_number
Lu3+ 3
O2- -2
loop_
_atom_site_label
_atom_site_type_symbol
_atom_site_symmetry_multiplicity
_atom_site_Wyckoff_symbol
_atom_site_fract_x
_atom_site_fract_y
_atom_site_fract_z
_atom_site_B_iso_or_equiv
_atom_site_occupancy
_atom_site_attached_hydrogens
Lu1 Lu3+ 8 b 0.25 0.25 0.25 0.00524(5) 1 0
Lu2 Lu3+ 24 d 0.46682(2) 0. 0.25 0.00462(3) 1 0
O1 O2- 48 e 0.3917(2) 0.1532(2) 0.3799(2) 0.0064(3) 1 0
loop_
_atom_site_aniso_label
_atom_site_aniso_type_symbol
_atom_site_aniso_U_11
_atom_site_aniso_U_22
_atom_site_aniso_U_33
_atom_site_aniso_U_12
_atom_site_aniso_U_13
_atom_site_aniso_U_23
Lu1 Lu3+ 0.00524(5) 0.00524(5) 0.00524(5) 0.00051(4) 0.00051(4) 0.00051(4)
Lu2 Lu3+ 0.00469(6) 0.00453(5) 0.00465(6) 0. 0. 0.00026(4)
O1 O2- 0.0061(7) 0.0074(7) 0.0056(7) -0.0002(6) -0.0005(6) -0.0002(6)
#End of TTdata_428543-ICSD