
#(C) 2016 by FIZ Karlsruhe - Leibniz Institute for Information Infrastructure.  All rights reserved.
data_32514-ICSD
_database_code_ICSD 32514
_audit_creation_date 1982-12-31
_audit_update_record 2012-08-01
_chemical_name_systematic 'Neodymium oxide'
_chemical_formula_structural 'Nd2 O3'
_chemical_formula_sum 'Nd2 O3'
_chemical_name_structure_type La2O3
_exptl_crystal_density_diffrn 7.35
_cell_measurement_temperature 4.
_publ_section_title 'Refinement of the Nd2 O3 and Nd2 O2 S structures at 4 K'
loop_
_citation_id
_citation_journal_full
_citation_year
_citation_journal_volume
_citation_page_first
_citation_page_last
_citation_journal_id_ASTM
primary 'Acta Crystallographica B (24,1968-38,1982)' 1982 38 344 346 ACBCAR
loop_
_publ_author_name
'Faucher, M.'
'Pannetier, J.'
'Charreire, Y.'
'Caro, P.'
_cell_length_a 3.8272(1)
_cell_length_b 3.8272(1)
_cell_length_c 5.9910(2)
_cell_angle_alpha 90.
_cell_angle_beta 90.
_cell_angle_gamma 120.
_cell_volume 76.
_cell_formula_units_Z 1
_symmetry_space_group_name_H-M 'P -3 m 1'
_symmetry_Int_Tables_number 164
_refine_ls_R_factor_all 0.082
loop_
_symmetry_equiv_pos_site_id
_symmetry_equiv_pos_as_xyz
1 'x-y, -y, -z'
2 '-x, -x+y, -z'
3 'y, x, -z'
4 'x-y, x, -z'
5 'y, -x+y, -z'
6 '-x, -y, -z'
7 '-x+y, y, z'
8 'x, x-y, z'
9 '-y, -x, z'
10 '-x+y, -x, z'
11 '-y, x-y, z'
12 'x, y, z'
loop_
_atom_type_symbol
_atom_type_oxidation_number
Nd3+ 3
O2- -2
loop_
_atom_site_label
_atom_site_type_symbol
_atom_site_symmetry_multiplicity
_atom_site_Wyckoff_symbol
_atom_site_fract_x
_atom_site_fract_y
_atom_site_fract_z
_atom_site_B_iso_or_equiv
_atom_site_occupancy
_atom_site_attached_hydrogens
Nd1 Nd3+ 2 d 0.3333 0.6667 0.2473(3) 0.1 1. 0
O1 O2- 2 d 0.3333 0.6667 0.6464(3) 0.42 1. 0
O2 O2- 1 a 0 0 0 0.88 1. 0
#End of TTdata_32514-ICSD