
#(C) 2017 by FIZ Karlsruhe - Leibniz Institute for Information Infrastructure.  All rights reserved.
data_95490-ICSD
_database_code_ICSD 95490
_audit_creation_date 2003-10-01
_chemical_name_systematic 'Neodymium manganate(III)'
_chemical_formula_structural 'Nd (Mn O3)'
_chemical_formula_sum 'Mn1 Nd1 O3'
_chemical_name_structure_type Perovskite-GdFeO3
_exptl_crystal_density_diffrn 6.87
_publ_section_title

;
Crystal growth and crystal structures of the Ln Mn O3 perovskites: Ln = Nd,
Sm, Eu and Gd
;
loop_
_citation_id
_citation_journal_full
_citation_year
_citation_journal_volume
_citation_page_first
_citation_page_last
_citation_journal_id_ASTM
primary 'Materials Letters' 2002 54 238 243 MLETDJ
loop_
_publ_author_name
'Mori, T.'
'Kamegashira, N.'
'Aoki, K.'
'Shishido, T.'
'Fukuda, T.'
_cell_length_a 5.849(1)
_cell_length_b 7.543(2)
_cell_length_c 5.416(2)
_cell_angle_alpha 90
_cell_angle_beta 90
_cell_angle_gamma 90
_cell_volume 238.95
_cell_formula_units_Z 4
_symmetry_space_group_name_H-M 'P n m a'
_symmetry_Int_Tables_number 62
_refine_ls_R_factor_all 0.0581
loop_
_symmetry_equiv_pos_site_id
_symmetry_equiv_pos_as_xyz
1 'x+1/2, y, -z+1/2'
2 'x, -y+1/2, z'
3 '-x+1/2, y+1/2, z+1/2'
4 '-x, -y, -z'
5 '-x+1/2, -y, z+1/2'
6 '-x, y+1/2, -z'
7 'x+1/2, -y+1/2, -z+1/2'
8 'x, y, z'
loop_
_atom_type_symbol
_atom_type_oxidation_number
Nd3+ 3
Mn3+ 3
O2- -2
loop_
_atom_site_label
_atom_site_type_symbol
_atom_site_symmetry_multiplicity
_atom_site_Wyckoff_symbol
_atom_site_fract_x
_atom_site_fract_y
_atom_site_fract_z
_atom_site_B_iso_or_equiv
_atom_site_occupancy
_atom_site_attached_hydrogens
Nd1 Nd3+ 4 c 0.07044(5) 0.25 0.98658(4) 0.00486(5) 1. 0
Mn1 Mn3+ 4 b 0 0 0.5 0.00471(9) 1. 0
O1 O2- 4 c 0.476(7) 0.25 0.089(7) 0.0063(4) 1. 0
O2 O2- 8 d 0.1796(7) 0.5450(4) 0.2132(5) 0.0067(3) 1. 0
loop_
_atom_site_aniso_label
_atom_site_aniso_type_symbol
_atom_site_aniso_U_11
_atom_site_aniso_U_22
_atom_site_aniso_U_33
_atom_site_aniso_U_12
_atom_site_aniso_U_13
_atom_site_aniso_U_23
Nd1 Nd3+ 0.0060(9) 0.0040(7) 0.0046(7) 0. -0.0005(5) 0.
Mn1 Mn3+ 0.0070(2) 0.0035(2) 0.0036(2) 0.0005(2) 0.0009(1) 0.0000(1)
O1 O2- 0.008(1) 0.004(8) 0.007(1) 0. -0.0000(8) 0.
O2 O2- 0.007(9) 0.007(7) 0.006(6) -0.0005(6) 0.001(5) 0.0057(6)
#End of TTdata_95490-ICSD