
#(C) 2018 by FIZ Karlsruhe - Leibniz Institute for Information Infrastructure.  All rights reserved.
data_194156-ICSD
_database_code_ICSD 194156
_audit_creation_date 2015-08-01
_chemical_name_systematic 'Lead chromate(IV)'
_chemical_formula_structural 'Pb (Cr O3)'
_chemical_formula_sum 'Cr1 O3 Pb1'
_exptl_crystal_density_diffrn 7.94
_publ_section_title

;
Charge disproportionation and the pressure-induced insulator-metal transition
in cubic perovskite Pb Cr O3
;
loop_
_citation_id
_citation_journal_full
_citation_year
_citation_journal_volume
_citation_page_first
_citation_page_last
_citation_journal_id_ASTM
primary

;
Proceedings of the National Academy of Sciences of the United States of
America
; 2015 112 1670 1674 PNASA6
loop_
_publ_author_name
'Cheng, Jinguang'
'Kweon, K.E.'
'Larregola, S.A.'
'Ding, Yang'
'Shirako, Y.'
'Marshall, L.G.'
'Li, Z.Y.'
'Li, X.'
'dos Santos, Antonio M.'
'Suchomel, M.R.'
'Matsubayashi, K.'
'Uwatoko, Y.'
'Hwang, G.S.'
'Goodenough, John B.'
'Zhou, J.S.'
_cell_length_a 4.0054(2)
_cell_length_b 4.0054(2)
_cell_length_c 4.0054(2)
_cell_angle_alpha 90.
_cell_angle_beta 90.
_cell_angle_gamma 90.
_cell_volume 64.26
_cell_formula_units_Z 1
_symmetry_space_group_name_H-M 'P m -3 m'
_symmetry_Int_Tables_number 221
_refine_ls_R_factor_all 0.0695
loop_
_symmetry_equiv_pos_site_id
_symmetry_equiv_pos_as_xyz
1 'z, y, -x'
2 'y, x, -z'
3 'x, z, -y'
4 'z, x, -y'
5 'y, z, -x'
6 'x, y, -z'
7 'z, -y, x'
8 'y, -x, z'
9 'x, -z, y'
10 'z, -x, y'
11 'y, -z, x'
12 'x, -y, z'
13 '-z, y, x'
14 '-y, x, z'
15 '-x, z, y'
16 '-z, x, y'
17 '-y, z, x'
18 '-x, y, z'
19 '-z, -y, -x'
20 '-y, -x, -z'
21 '-x, -z, -y'
22 '-z, -x, -y'
23 '-y, -z, -x'
24 '-x, -y, -z'
25 '-z, -y, x'
26 '-y, -x, z'
27 '-x, -z, y'
28 '-z, -x, y'
29 '-y, -z, x'
30 '-x, -y, z'
31 '-z, y, -x'
32 '-y, x, -z'
33 '-x, z, -y'
34 '-z, x, -y'
35 '-y, z, -x'
36 '-x, y, -z'
37 'z, -y, -x'
38 'y, -x, -z'
39 'x, -z, -y'
40 'z, -x, -y'
41 'y, -z, -x'
42 'x, -y, -z'
43 'z, y, x'
44 'y, x, z'
45 'x, z, y'
46 'z, x, y'
47 'y, z, x'
48 'x, y, z'
loop_
_atom_type_symbol
_atom_type_oxidation_number
Pb2+ 2
Cr4+ 4
O2- -2
loop_
_atom_site_label
_atom_site_type_symbol
_atom_site_symmetry_multiplicity
_atom_site_Wyckoff_symbol
_atom_site_fract_x
_atom_site_fract_y
_atom_site_fract_z
_atom_site_B_iso_or_equiv
_atom_site_occupancy
_atom_site_attached_hydrogens
Pb1 Pb2+ 8 g 0.5560(5) 0.5560(5) 0.5560(5) 2.12(9) 0.125 0
Cr1 Cr4+ 1 a 0 0 0 3.4(1) 1. 0
O1 O2- 3 d 0.5 0 0 4.6(2) 1. 0
#End of TTdata_194156-ICSD