
#(C) 2016 by FIZ Karlsruhe - Leibniz Institute for Information Infrastructure.  All rights reserved.
data_62842-ICSD
_database_code_ICSD 62842
_audit_creation_date 1988-07-15
_audit_update_record 2006-04-01
_chemical_name_systematic 'Lead oxide - alpha'
_chemical_formula_structural 'Pb O'
_chemical_formula_sum 'O1 Pb1'
_chemical_name_structure_type Litharge
_chemical_name_mineral Litharge
_exptl_crystal_density_diffrn 9.34
_cell_measurement_temperature 295.
_publ_section_title

;
Monoxyde quadratique Pb O alpha (I): Description de la transition structurale
ferroelastique
;
loop_
_citation_id
_citation_journal_full
_citation_year
_citation_journal_volume
_citation_page_first
_citation_page_last
_citation_journal_id_ASTM
primary 'Journal of Solid State Chemistry' 1985 57 343 350 JSSCBI
loop_
_publ_author_name
'Boher, P.'
'Garnier, P.'
'Gavarri, J.R.'
'Hewat, A.W.'
_cell_length_a 3.9744(5)
_cell_length_b 3.9744(5)
_cell_length_c 5.0220(5)
_cell_angle_alpha 90.
_cell_angle_beta 90.
_cell_angle_gamma 90.
_cell_volume 79.33
_cell_formula_units_Z 2
_symmetry_space_group_name_H-M 'P 4/n m m S'
_symmetry_Int_Tables_number 129
_refine_ls_R_factor_all 0.033
loop_
_symmetry_equiv_pos_site_id
_symmetry_equiv_pos_as_xyz
1 '-y+1/2, -x+1/2, z'
2 'y+1/2, x+1/2, z'
3 '-y, -x, -z'
4 'y, x, -z'
5 'y+1/2, -x+1/2, z'
6 '-y+1/2, x+1/2, z'
7 'y, -x, -z'
8 '-y, x, -z'
9 'x+1/2, -y+1/2, -z'
10 '-x+1/2, y+1/2, -z'
11 'x, -y, z'
12 '-x, y, z'
13 '-x+1/2, -y+1/2, -z'
14 'x+1/2, y+1/2, -z'
15 '-x, -y, z'
16 'x, y, z'
loop_
_atom_type_symbol
_atom_type_oxidation_number
Pb2+ 2
O2- -2
loop_
_atom_site_label
_atom_site_type_symbol
_atom_site_symmetry_multiplicity
_atom_site_Wyckoff_symbol
_atom_site_fract_x
_atom_site_fract_y
_atom_site_fract_z
_atom_site_B_iso_or_equiv
_atom_site_occupancy
_atom_site_attached_hydrogens
Pb1 Pb2+ 2 c 0 0.5 0.2351(6) . 1. 0
O1 O2- 2 a 0 0 0 . 1. 0
loop_
_atom_site_aniso_label
_atom_site_aniso_type_symbol
_atom_site_aniso_beta_11
_atom_site_aniso_beta_22
_atom_site_aniso_beta_33
_atom_site_aniso_beta_12
_atom_site_aniso_beta_13
_atom_site_aniso_beta_23
Pb1 Pb2+ 1.48 1.48 1.42 0 0 0
O1 O2- 1.45 1.45 2.7 0 0 0
#End of TTdata_62842-ICSD