
#(C) 2017 by FIZ Karlsruhe - Leibniz Institute for Information Infrastructure.  All rights reserved.
data_61168-ICSD
_database_code_ICSD 61168
_audit_creation_date 1986-12-03
_audit_update_record 2015-02-01
_chemical_name_systematic 'Lead titanate'
_chemical_formula_structural 'Pb (Ti O3)'
_chemical_formula_sum 'O3 Pb1 Ti1'
_chemical_name_structure_type Perovskite-PbTiO3
_chemical_name_mineral Macedonite
_exptl_crystal_density_diffrn 7.95
_cell_measurement_temperature 295.
_publ_section_title
'The crystal structure of tetragonal Pb Ti O3 at room temperature and at 700 K'
loop_
_citation_id
_citation_journal_full
_citation_year
_citation_journal_volume
_citation_page_first
_citation_page_last
_citation_journal_id_ASTM
primary 'Solid State Communications' 1985 54 721 723 SSCOA4
loop_
_publ_author_name
'Nelmes, R.J.'
'Kuhs, W.F.'
_cell_length_a 3.902(3)
_cell_length_b 3.902(3)
_cell_length_c 4.156(3)
_cell_angle_alpha 90.
_cell_angle_beta 90.
_cell_angle_gamma 90.
_cell_volume 63.28
_cell_formula_units_Z 1
_symmetry_space_group_name_H-M 'P 4 m m'
_symmetry_Int_Tables_number 99
_refine_ls_R_factor_all 0.025
loop_
_symmetry_equiv_pos_site_id
_symmetry_equiv_pos_as_xyz
1 'y, -x, z'
2 '-y, x, z'
3 '-y, -x, z'
4 'y, x, z'
5 'x, -y, z'
6 '-x, y, z'
7 '-x, -y, z'
8 'x, y, z'
loop_
_atom_type_symbol
_atom_type_oxidation_number
Pb2+ 2
Ti4+ 4
O2- -2
loop_
_atom_site_label
_atom_site_type_symbol
_atom_site_symmetry_multiplicity
_atom_site_Wyckoff_symbol
_atom_site_fract_x
_atom_site_fract_y
_atom_site_fract_z
_atom_site_B_iso_or_equiv
_atom_site_occupancy
_atom_site_attached_hydrogens
Pb1 Pb2+ 1 a 0 0 0 . 1. 0
Ti1 Ti4+ 1 b 0.5 0.5 0.5377(4) . 1. 0
O1 O2- 1 b 0.5 0.5 0.1118(3) . 1. 0
O2 O2- 2 c 0 0.5 0.6174(3) . 1. 0
loop_
_atom_site_aniso_label
_atom_site_aniso_type_symbol
_atom_site_aniso_U_11
_atom_site_aniso_U_22
_atom_site_aniso_U_33
_atom_site_aniso_U_12
_atom_site_aniso_U_13
_atom_site_aniso_U_23
Pb1 Pb2+ 0.0089(2) 0.0089(2) 0.0083(2) 0 0 0
Ti1 Ti4+ 0.0037(3) 0.0037(3) 0.0054(5) 0 0 0
O1 O2- 0.0095(2) 0.0095(2) 0.0055(3) 0 0 0
O2 O2- 0.0081(2) 0.0039(2) 0.0095(2) 0 0 0
#End of TTdata_61168-ICSD