
#(C) 2018 by FIZ Karlsruhe - Leibniz Institute for Information Infrastructure.  All rights reserved.
data_26598-ICSD
_database_code_ICSD 26598
_audit_creation_date 1980-01-01
_audit_update_record 2010-02-01
_chemical_name_systematic 'Palladium oxide'
_chemical_formula_structural 'Pd O'
_chemical_formula_sum 'O1 Pd1'
_chemical_name_structure_type PdO
_chemical_name_mineral Palladinite
_exptl_crystal_density_diffrn 8.39
_publ_section_title

;
The crystal structures of the tetragonal monoxides of lead, tin, palladium,
and platinum
;
loop_
_citation_id
_citation_journal_full
_citation_year
_citation_journal_volume
_citation_page_first
_citation_page_last
_citation_journal_id_ASTM
primary 'Journal of the American Chemical Society' 1941 63 1392 1394 JACSAT
loop_
_publ_author_name
'Moore, W.J.'
'Pauling, L.'
_cell_length_a 3.02(1)
_cell_length_b 3.02(1)
_cell_length_c 5.31(1)
_cell_angle_alpha 90.
_cell_angle_beta 90.
_cell_angle_gamma 90.
_cell_volume 48.43
_cell_formula_units_Z 2
_symmetry_space_group_name_H-M 'P 42/m m c'
_symmetry_Int_Tables_number 131
loop_
_symmetry_equiv_pos_site_id
_symmetry_equiv_pos_as_xyz
1 'y, x, z+1/2'
2 '-y, -x, z+1/2'
3 '-x, y, z'
4 'x, -y, z'
5 '-y, x, -z+1/2'
6 'y, -x, -z+1/2'
7 'x, y, -z'
8 '-x, -y, -z'
9 '-y, -x, -z+1/2'
10 'y, x, -z+1/2'
11 'x, -y, -z'
12 '-x, y, -z'
13 'y, -x, z+1/2'
14 '-y, x, z+1/2'
15 '-x, -y, z'
16 'x, y, z'
loop_
_atom_type_symbol
_atom_type_oxidation_number
Pd2+ 2
O2- -2
loop_
_atom_site_label
_atom_site_type_symbol
_atom_site_symmetry_multiplicity
_atom_site_Wyckoff_symbol
_atom_site_fract_x
_atom_site_fract_y
_atom_site_fract_z
_atom_site_B_iso_or_equiv
_atom_site_occupancy
_atom_site_attached_hydrogens
Pd1 Pd2+ 2 d 0.5 0 0 . 1. 0
O1 O2- 2 e 0 0 0.25 . 1. 0
#End of TTdata_26598-ICSD