
#(C) 2016 by FIZ Karlsruhe - Leibniz Institute for Information Infrastructure.  All rights reserved.
data_75481-ICSD
_database_code_ICSD 75481
_audit_creation_date 1996-04-22
_audit_update_record 2013-02-01
_chemical_name_systematic 'Praseodymium oxide - A'
_chemical_formula_structural 'Pr2 O3'
_chemical_formula_sum 'O3 Pr2'
_chemical_name_structure_type La2O3
_exptl_crystal_density_diffrn 7.06
_publ_section_title

;
The crystal structure of the low-temperature A-type modification of Pr2 O3
from X-ray powder and electron single crystal diffraction
;
loop_
_citation_id
_citation_journal_full
_citation_year
_citation_journal_volume
_citation_page_first
_citation_page_last
_citation_journal_id_ASTM
primary 'Journal of Alloys and Compounds' 1994 216 255 258 JALCEU
loop_
_publ_author_name
'Greis, O.'
'Ziel, R.'
'Breidenstein, B.'
'Haase, A.'
'Petzel, T.'
_cell_length_a 3.8589(1)
_cell_length_b 3.8589(1)
_cell_length_c 6.0131(2)
_cell_angle_alpha 90.
_cell_angle_beta 90.
_cell_angle_gamma 120.
_cell_volume 77.55
_cell_formula_units_Z 1
_symmetry_space_group_name_H-M 'P -3 m 1'
_symmetry_Int_Tables_number 164
_refine_ls_R_factor_all 0.021
loop_
_symmetry_equiv_pos_site_id
_symmetry_equiv_pos_as_xyz
1 'x-y, -y, -z'
2 '-x, -x+y, -z'
3 'y, x, -z'
4 'x-y, x, -z'
5 'y, -x+y, -z'
6 '-x, -y, -z'
7 '-x+y, y, z'
8 'x, x-y, z'
9 '-y, -x, z'
10 '-x+y, -x, z'
11 '-y, x-y, z'
12 'x, y, z'
loop_
_atom_type_symbol
_atom_type_oxidation_number
Pr3+ 3
O2- -2
loop_
_atom_site_label
_atom_site_type_symbol
_atom_site_symmetry_multiplicity
_atom_site_Wyckoff_symbol
_atom_site_fract_x
_atom_site_fract_y
_atom_site_fract_z
_atom_site_B_iso_or_equiv
_atom_site_occupancy
_atom_site_attached_hydrogens
Pr1 Pr3+ 2 d 0.3333 0.6667 0.24630(5) 0.42 1. 0
O1 O2- 2 d 0.3333 0.6667 0.6555(8) 0.5 1. 0
O2 O2- 1 a 0 0 0 0.9 1. 0
#End of TTdata_75481-ICSD