
#(C) 2016 by FIZ Karlsruhe - Leibniz Institute for Information Infrastructure.  All rights reserved.
data_261888-ICSD
_database_code_ICSD 261888
_audit_creation_date 2012-02-01
_chemical_name_systematic 'Disamarium trioxide - with Sm-154'
_chemical_formula_structural 'Sm2 O3'
_chemical_formula_sum 'O3 Sm2'
_chemical_name_structure_type Sm2O3
_exptl_crystal_density_diffrn 7.74
_publ_section_title

;
The structure of B-type Sm2 O3. A powder neutron diffraction study using
enriched 154Sm
;
loop_
_citation_id
_citation_journal_full
_citation_year
_citation_journal_volume
_citation_page_first
_citation_page_last
_citation_journal_id_ASTM
primary 'Solid State Sciences' 2011 13 1701 1703 SSSCFJ
loop_
_publ_author_name
'Kennedy, B.J.'
'Avdeev, M.'
_cell_length_a 14.1838(4)
_cell_length_b 3.62741(9)
_cell_length_c 8.8577(2)
_cell_angle_alpha 90
_cell_angle_beta 100.0271(20)
_cell_angle_gamma 90
_cell_volume 448.77
_cell_formula_units_Z 6
_symmetry_space_group_name_H-M 'C 1 2/m 1'
_symmetry_Int_Tables_number 12
_refine_ls_R_factor_all 0.0405
loop_
_symmetry_equiv_pos_site_id
_symmetry_equiv_pos_as_xyz
1 '-x, y, -z'
2 '-x, -y, -z'
3 'x, -y, z'
4 'x, y, z'
5 '-x+1/2, y+1/2, -z'
6 '-x+1/2, -y+1/2, -z'
7 'x+1/2, -y+1/2, z'
8 'x+1/2, y+1/2, z'
loop_
_atom_type_symbol
_atom_type_oxidation_number
Sm3+ 3
O2- -2
loop_
_atom_site_label
_atom_site_type_symbol
_atom_site_symmetry_multiplicity
_atom_site_Wyckoff_symbol
_atom_site_fract_x
_atom_site_fract_y
_atom_site_fract_z
_atom_site_B_iso_or_equiv
_atom_site_occupancy
_atom_site_attached_hydrogens
Sm1 Sm3+ 4 i 0.1357(4) 0.5 0.4897(6) 0.0476(20) 1. 0
Sm2 Sm3+ 4 i 0.1800(4) 0.5 0.1362(6) 0.0509(21) 1. 0
Sm3 Sm3+ 4 i 0.4672(4) 0.5 0.1865(6) 0.0451(17) 1. 0
O1 O2- 4 i 0.1312(6) 0 0.2867(9) 0.0579(32) 1. 0
O2 O2- 4 i 0.3254(6) 0.5 0.0296(8) 0.0374(26) 1. 0
O3 O2- 4 i 0.2986(6) 0.5 0.3694(9) 0.0555(29) 1. 0
O4 O2- 4 i 0.4722(7) 0 0.3459(8) 0.0453(32) 1. 0
O5 O2- 2 b 0 0.5 0 0.0582(47) 1. 0
#End of TTdata_261888-ICSD