
#(C) 2019 by FIZ Karlsruhe - Leibniz Institute for Information Infrastructure.  All rights reserved.
data_150387-ICSD
_database_code_ICSD 150387
_audit_creation_date 2006-04-01
_chemical_name_systematic 'Distrontium stannate - HT'
_chemical_formula_structural 'Sr2 (Sn O4)'
_chemical_formula_sum 'O4 Sn1 Sr2'
_chemical_name_structure_type K2MgF4
_exptl_crystal_density_diffrn 5.71
_cell_measurement_temperature 573.
_publ_section_title
'Neutron diffraction study of phase transitions in Sr2 Sn O4'
loop_
_citation_id
_citation_journal_full
_citation_year
_citation_journal_volume
_citation_page_first
_citation_page_last
_citation_journal_id_ASTM
primary 'Journal of Solid State Chemistry' 2004 177 4081 4086 JSSCBI
loop_
_publ_author_name
'Fu, W.T.'
'Visser, D.'
'Knight, K.S.'
'Ijdo, D.J.W.'
_cell_length_a 4.05493(1)
_cell_length_b 4.05493(1)
_cell_length_c 12.66944(5)
_cell_angle_alpha 90.
_cell_angle_beta 90.
_cell_angle_gamma 90.
_cell_volume 208.32
_cell_formula_units_Z 2
_symmetry_space_group_name_H-M 'I 4/m m m'
_symmetry_Int_Tables_number 139
_refine_ls_R_factor_all 0.0402
loop_
_symmetry_equiv_pos_site_id
_symmetry_equiv_pos_as_xyz
1 'y, x, -z'
2 '-y, -x, -z'
3 '-y, x, -z'
4 'y, -x, -z'
5 '-x, y, -z'
6 'x, -y, -z'
7 'x, y, -z'
8 '-x, -y, -z'
9 '-y, -x, z'
10 'y, x, z'
11 'y, -x, z'
12 '-y, x, z'
13 'x, -y, z'
14 '-x, y, z'
15 '-x, -y, z'
16 'x, y, z'
17 'y+1/2, x+1/2, -z+1/2'
18 '-y+1/2, -x+1/2, -z+1/2'
19 '-y+1/2, x+1/2, -z+1/2'
20 'y+1/2, -x+1/2, -z+1/2'
21 '-x+1/2, y+1/2, -z+1/2'
22 'x+1/2, -y+1/2, -z+1/2'
23 'x+1/2, y+1/2, -z+1/2'
24 '-x+1/2, -y+1/2, -z+1/2'
25 '-y+1/2, -x+1/2, z+1/2'
26 'y+1/2, x+1/2, z+1/2'
27 'y+1/2, -x+1/2, z+1/2'
28 '-y+1/2, x+1/2, z+1/2'
29 'x+1/2, -y+1/2, z+1/2'
30 '-x+1/2, y+1/2, z+1/2'
31 '-x+1/2, -y+1/2, z+1/2'
32 'x+1/2, y+1/2, z+1/2'
loop_
_atom_type_symbol
_atom_type_oxidation_number
Sn4+ 4
Sr2+ 2
O2- -2
loop_
_atom_site_label
_atom_site_type_symbol
_atom_site_symmetry_multiplicity
_atom_site_Wyckoff_symbol
_atom_site_fract_x
_atom_site_fract_y
_atom_site_fract_z
_atom_site_B_iso_or_equiv
_atom_site_occupancy
_atom_site_attached_hydrogens
Sn1 Sn4+ 2 a 0 0 0 0.0134(4) 1. 0
Sr1 Sr2+ 4 e 0 0 0.35231(5) 0.0213(3) 1. 0
O1 O2- 4 c 0 0.5 0 0.0285(3) 1. 0
O2 O2- 4 e 0 0 0.16303(9) 0.0326(3) 1. 0
#End of TTdata_150387-ICSD