
#(C) 2019 by FIZ Karlsruhe - Leibniz Institute for Information Infrastructure.  All rights reserved.
data_84882-ICSD
_database_code_ICSD 84882
_audit_creation_date 1999-01-19
_audit_update_record 2007-08-01
_chemical_name_systematic 'Strontium praseodymium(IV) oxide'
_chemical_formula_structural 'Sr (Pr O3)'
_chemical_formula_sum 'O3 Pr1 Sr1'
_chemical_name_structure_type Perovskite-GdFeO3
_exptl_crystal_density_diffrn 5.87
_publ_section_title

;
Structure and magnetic properties of tetravalent praseodymium perovskite Sr Pr
O3
;
loop_
_citation_id
_citation_journal_full
_citation_year
_citation_journal_volume
_citation_page_first
_citation_page_last
_citation_journal_id_ASTM
primary 'Journal of Solid State Chemistry' 1997 132 337 341 JSSCBI
loop_
_publ_author_name
'Hinatsu, Y.'
'Itoh, M.'
'Edelstein, N.'
_cell_length_a 5.9847(7)
_cell_length_b 6.1168(8)
_cell_length_c 8.5487(9)
_cell_angle_alpha 90.
_cell_angle_beta 90.
_cell_angle_gamma 90.
_cell_volume 312.94
_cell_formula_units_Z 4
_symmetry_space_group_name_H-M 'P b n m'
_symmetry_Int_Tables_number 62
loop_
_symmetry_equiv_pos_site_id
_symmetry_equiv_pos_as_xyz
1 '-x+1/2, y+1/2, z'
2 'x, y, -z+1/2'
3 'x+1/2, -y+1/2, z+1/2'
4 '-x, -y, -z'
5 'x+1/2, -y+1/2, -z'
6 '-x, -y, z+1/2'
7 '-x+1/2, y+1/2, -z+1/2'
8 'x, y, z'
loop_
_atom_type_symbol
_atom_type_oxidation_number
Sr2+ 2
Pr4+ 4
O2- -2
loop_
_atom_site_label
_atom_site_type_symbol
_atom_site_symmetry_multiplicity
_atom_site_Wyckoff_symbol
_atom_site_fract_x
_atom_site_fract_y
_atom_site_fract_z
_atom_site_B_iso_or_equiv
_atom_site_occupancy
_atom_site_attached_hydrogens
Sr1 Sr2+ 4 c -.006 0.044 0.25 . 1. 0
Pr1 Pr4+ 4 b 0 0.5 0 . 1. 0
O1 O2- 4 c 0.121 0.479 0.25 . 1. 0
O2 O2- 8 d 0.685 0.322 0.048 . 1. 0
#End of TTdata_84882-ICSD