
#(C) 2019 by FIZ Karlsruhe - Leibniz Institute for Information Infrastructure.  All rights reserved.
data_90846-ICSD
_database_code_ICSD 90846
_audit_creation_date 2002-04-01
_chemical_name_systematic 'Strontium tin(IV) oxide'
_chemical_formula_structural 'Sr Sn O3'
_chemical_formula_sum 'O3 Sn1 Sr1'
_chemical_name_structure_type Perovskite-GdFeO3
_exptl_crystal_density_diffrn 6.43
_cell_measurement_temperature 300.
_publ_section_title

;
Structure of the n=2 and n=infinity member of the Ruddlesden-Popper series,
Srn+1 Snn O3n+1
;
loop_
_citation_id
_citation_journal_full
_citation_year
_citation_journal_volume
_citation_page_first
_citation_page_last
_citation_journal_id_ASTM
primary 'International Journal of Inorganic Materials' 2000 2 35 41 IJIMCR
loop_
_publ_author_name
'Green, M.A.'
'Prassides, K.'
'Day, P.'
'Neumann, D.A.'
_cell_length_a 5.70892(3)
_cell_length_b 5.70340(3)
_cell_length_c 8.06482(4)
_cell_angle_alpha 90.
_cell_angle_beta 90.
_cell_angle_gamma 90.
_cell_volume 262.59
_cell_formula_units_Z 4
_symmetry_space_group_name_H-M 'P b n m'
_symmetry_Int_Tables_number 62
_refine_ls_R_factor_all 0.056
loop_
_symmetry_equiv_pos_site_id
_symmetry_equiv_pos_as_xyz
1 '-x+1/2, y+1/2, z'
2 'x, y, -z+1/2'
3 'x+1/2, -y+1/2, z+1/2'
4 '-x, -y, -z'
5 'x+1/2, -y+1/2, -z'
6 '-x, -y, z+1/2'
7 '-x+1/2, y+1/2, -z+1/2'
8 'x, y, z'
loop_
_atom_type_symbol
_atom_type_oxidation_number
Sr2+ 2
Sn4+ 4
O2- -2
loop_
_atom_site_label
_atom_site_type_symbol
_atom_site_symmetry_multiplicity
_atom_site_Wyckoff_symbol
_atom_site_fract_x
_atom_site_fract_y
_atom_site_fract_z
_atom_site_B_iso_or_equiv
_atom_site_occupancy
_atom_site_attached_hydrogens
Sr1 Sr2+ 4 c -.0028(1) 0.0195(5) 0.25 0.82(4) 1. 0
Sn1 Sn4+ 4 b 0 0.5 0 0.11(4) 1. 0
O1 O2- 4 c 0.0600(1) 0.4898(7) 0.25 0.69(7) 1. 0
O2 O2- 8 d 0.7190(5) 0.2805(5) 0.0330(5) 0.63(5) 1. 0
#End of TTdata_90846-ICSD